
     Program PWSCF v.7.1 starts on 27Jun2023 at 15:34:38

     This program is part of the open-source Quantum ESPRESSO suite
     for quantum simulation of materials; please cite
         "P. Giannozzi et al., J. Phys.:Condens. Matter 21 395502 (2009);
         "P. Giannozzi et al., J. Phys.:Condens. Matter 29 465901 (2017);
         "P. Giannozzi et al., J. Chem. Phys. 152 154105 (2020);
          URL http://www.quantum-espresso.org",
     in publications or presentations arising from this work. More details at
     http://www.quantum-espresso.org/quote

     Parallel version (MPI & OpenMP), running on      20 processor cores
     Number of MPI processes:                20
     Threads/MPI process:                     1

     MPI processes distributed on     1 nodes
     226800 MiB available memory on the printing compute node when the environment starts

     Reading input from input/nscf.in

     Current dimensions of program PWSCF are:
     Max number of different atomic species (ntypx) = 10
     Max number of k-points (npk) =  40000
     Max angular momentum in pseudopotentials (lmaxx) =  4

     Atomic positions and unit cell read from directory:
     ./tmp/c.save/
     Atomic positions from file used, from input discarded


     R & G space division:  proc/nbgrp/npool/nimage =      20
     Subspace diagonalization in iterative solution of the eigenvalue problem:
     a serial algorithm will be used


     Parallelization info
     --------------------
     sticks:   dense  smooth     PW     G-vecs:    dense   smooth      PW
     Min          93      89     25                20481    19267    2993
     Max          94      90     26                20502    19300    3024
     Sum        1879    1789    511               409943   385631   60191

     Using Slab Decomposition



     bravais-lattice index     =            0
     lattice parameter (alat)  =       7.3605  a.u.
     unit-cell volume          =    2170.2486 (a.u.)^3
     number of atoms/cell      =            3
     number of atomic types    =            2
     number of electrons       =        32.00
     number of Kohn-Sham states=           20
     kinetic-energy cutoff     =     120.0000  Ry
     charge density cutoff     =     500.0000  Ry
     Exchange-correlation= PBE
                           (   1   4   3   4   0   0   0)

     celldm(1)=   7.360481  celldm(2)=   0.000000  celldm(3)=   0.000000
     celldm(4)=   0.000000  celldm(5)=   0.000000  celldm(6)=   0.000000

     crystal axes: (cart. coord. in units of alat)
               a(1) = (   1.000000   0.000000   0.000000 )
               a(2) = (  -0.500000   0.866025   0.000000 )
               a(3) = (   0.000000   0.000000   6.284350 )

     reciprocal axes: (cart. coord. in units 2 pi/alat)
               b(1) = (  1.000000  0.577350  0.000000 )
               b(2) = (  0.000000  1.154701  0.000000 )
               b(3) = (  0.000000  0.000000  0.159125 )


     PseudoPot. # 1 for Ni read from file:
     ../pseudo/Ni.upf
     MD5 check sum: 14a7e289c5fff9cacaba393040e62f02
     Pseudo is Norm-conserving + core correction, Zval = 18.0
     Generated using ONCVPSP code by D. R. Hamann
     Using radial grid of 1372 points,  6 beta functions with:
                l(1) =   0
                l(2) =   0
                l(3) =   1
                l(4) =   1
                l(5) =   2
                l(6) =   2

     PseudoPot. # 2 for I  read from file:
     ../pseudo/I.upf
     MD5 check sum: 301f7009ca0a2b18b0adf53dca02d42f
     Pseudo is Norm-conserving + core correction, Zval =  7.0
     Generated using ONCVPSP code by D. R. Hamann
     Using radial grid of 1210 points,  6 beta functions with:
                l(1) =   0
                l(2) =   0
                l(3) =   1
                l(4) =   1
                l(5) =   2
                l(6) =   2

     atomic species   valence    mass     pseudopotential
        Ni            18.00    58.69340     Ni( 1.00)
        I              7.00   126.90447     I ( 1.00)

     No symmetry found


                                    s                        frac. trans.

      isym =  1     identity

 cryst.   s( 1) = (     1          0          0      )
                  (     0          1          0      )
                  (     0          0          1      )

 cart.    s( 1) = (  1.0000000 -0.0000000  0.0000000 )
                  (  0.0000000  1.0000000  0.0000000 )
                  (  0.0000000  0.0000000  1.0000000 )


   Cartesian axes

     site n.     atom                  positions (alat units)
         1           Ni  tau(   1) = (   0.0000000   0.0000000   3.1421749  )
         2           I   tau(   2) = (  -0.0000000   0.5773503   3.5289144  )
         3           I   tau(   3) = (   0.5000000   0.2886751   2.7554354  )

   Crystallographic axes

     site n.     atom                  positions (cryst. coord.)
         1           Ni  tau(   1) = (  0.0000000  0.0000000  0.5000000  )
         2           I   tau(   2) = (  0.3333333  0.6666667  0.5615401  )
         3           I   tau(   3) = (  0.6666667  0.3333333  0.4384599  )

     number of k points=   256  Marzari-Vanderbilt smearing, width (Ry)=  0.0015
                       cart. coord. in units 2pi/alat
        k(    1) = (   0.0000000   0.0000000   0.0000000), wk =   0.0078125
        k(    2) = (   0.0000000   0.0721688   0.0000000), wk =   0.0078125
        k(    3) = (   0.0000000   0.1443376   0.0000000), wk =   0.0078125
        k(    4) = (   0.0000000   0.2165064   0.0000000), wk =   0.0078125
        k(    5) = (   0.0000000   0.2886751   0.0000000), wk =   0.0078125
        k(    6) = (   0.0000000   0.3608439   0.0000000), wk =   0.0078125
        k(    7) = (   0.0000000   0.4330127   0.0000000), wk =   0.0078125
        k(    8) = (   0.0000000   0.5051815   0.0000000), wk =   0.0078125
        k(    9) = (   0.0000000  -0.5773503   0.0000000), wk =   0.0078125
        k(   10) = (   0.0000000  -0.5051815   0.0000000), wk =   0.0078125
        k(   11) = (   0.0000000  -0.4330127   0.0000000), wk =   0.0078125
        k(   12) = (   0.0000000  -0.3608439   0.0000000), wk =   0.0078125
        k(   13) = (   0.0000000  -0.2886751   0.0000000), wk =   0.0078125
        k(   14) = (   0.0000000  -0.2165064   0.0000000), wk =   0.0078125
        k(   15) = (   0.0000000  -0.1443376   0.0000000), wk =   0.0078125
        k(   16) = (   0.0000000  -0.0721688   0.0000000), wk =   0.0078125
        k(   17) = (   0.0625000   0.0360844   0.0000000), wk =   0.0078125
        k(   18) = (   0.0625000   0.1082532   0.0000000), wk =   0.0078125
        k(   19) = (   0.0625000   0.1804220   0.0000000), wk =   0.0078125
        k(   20) = (   0.0625000   0.2525907   0.0000000), wk =   0.0078125
        k(   21) = (   0.0625000   0.3247595   0.0000000), wk =   0.0078125
        k(   22) = (   0.0625000   0.3969283   0.0000000), wk =   0.0078125
        k(   23) = (   0.0625000   0.4690971   0.0000000), wk =   0.0078125
        k(   24) = (   0.0625000   0.5412659   0.0000000), wk =   0.0078125
        k(   25) = (   0.0625000  -0.5412659   0.0000000), wk =   0.0078125
        k(   26) = (   0.0625000  -0.4690971   0.0000000), wk =   0.0078125
        k(   27) = (   0.0625000  -0.3969283   0.0000000), wk =   0.0078125
        k(   28) = (   0.0625000  -0.3247595   0.0000000), wk =   0.0078125
        k(   29) = (   0.0625000  -0.2525907   0.0000000), wk =   0.0078125
        k(   30) = (   0.0625000  -0.1804220   0.0000000), wk =   0.0078125
        k(   31) = (   0.0625000  -0.1082532   0.0000000), wk =   0.0078125
        k(   32) = (   0.0625000  -0.0360844   0.0000000), wk =   0.0078125
        k(   33) = (   0.1250000   0.0721688   0.0000000), wk =   0.0078125
        k(   34) = (   0.1250000   0.1443376   0.0000000), wk =   0.0078125
        k(   35) = (   0.1250000   0.2165064   0.0000000), wk =   0.0078125
        k(   36) = (   0.1250000   0.2886751   0.0000000), wk =   0.0078125
        k(   37) = (   0.1250000   0.3608439   0.0000000), wk =   0.0078125
        k(   38) = (   0.1250000   0.4330127   0.0000000), wk =   0.0078125
        k(   39) = (   0.1250000   0.5051815   0.0000000), wk =   0.0078125
        k(   40) = (   0.1250000   0.5773503   0.0000000), wk =   0.0078125
        k(   41) = (   0.1250000  -0.5051815   0.0000000), wk =   0.0078125
        k(   42) = (   0.1250000  -0.4330127   0.0000000), wk =   0.0078125
        k(   43) = (   0.1250000  -0.3608439   0.0000000), wk =   0.0078125
        k(   44) = (   0.1250000  -0.2886751   0.0000000), wk =   0.0078125
        k(   45) = (   0.1250000  -0.2165064   0.0000000), wk =   0.0078125
        k(   46) = (   0.1250000  -0.1443376   0.0000000), wk =   0.0078125
        k(   47) = (   0.1250000  -0.0721688   0.0000000), wk =   0.0078125
        k(   48) = (   0.1250000   0.0000000   0.0000000), wk =   0.0078125
        k(   49) = (   0.1875000   0.1082532   0.0000000), wk =   0.0078125
        k(   50) = (   0.1875000   0.1804220   0.0000000), wk =   0.0078125
        k(   51) = (   0.1875000   0.2525907   0.0000000), wk =   0.0078125
        k(   52) = (   0.1875000   0.3247595   0.0000000), wk =   0.0078125
        k(   53) = (   0.1875000   0.3969283   0.0000000), wk =   0.0078125
        k(   54) = (   0.1875000   0.4690971   0.0000000), wk =   0.0078125
        k(   55) = (   0.1875000   0.5412659   0.0000000), wk =   0.0078125
        k(   56) = (   0.1875000   0.6134347   0.0000000), wk =   0.0078125
        k(   57) = (   0.1875000  -0.4690971   0.0000000), wk =   0.0078125
        k(   58) = (   0.1875000  -0.3969283   0.0000000), wk =   0.0078125
        k(   59) = (   0.1875000  -0.3247595   0.0000000), wk =   0.0078125
        k(   60) = (   0.1875000  -0.2525907   0.0000000), wk =   0.0078125
        k(   61) = (   0.1875000  -0.1804220   0.0000000), wk =   0.0078125
        k(   62) = (   0.1875000  -0.1082532   0.0000000), wk =   0.0078125
        k(   63) = (   0.1875000  -0.0360844   0.0000000), wk =   0.0078125
        k(   64) = (   0.1875000   0.0360844   0.0000000), wk =   0.0078125
        k(   65) = (   0.2500000   0.1443376   0.0000000), wk =   0.0078125
        k(   66) = (   0.2500000   0.2165064   0.0000000), wk =   0.0078125
        k(   67) = (   0.2500000   0.2886751   0.0000000), wk =   0.0078125
        k(   68) = (   0.2500000   0.3608439   0.0000000), wk =   0.0078125
        k(   69) = (   0.2500000   0.4330127   0.0000000), wk =   0.0078125
        k(   70) = (   0.2500000   0.5051815   0.0000000), wk =   0.0078125
        k(   71) = (   0.2500000   0.5773503   0.0000000), wk =   0.0078125
        k(   72) = (   0.2500000   0.6495191   0.0000000), wk =   0.0078125
        k(   73) = (   0.2500000  -0.4330127   0.0000000), wk =   0.0078125
        k(   74) = (   0.2500000  -0.3608439   0.0000000), wk =   0.0078125
        k(   75) = (   0.2500000  -0.2886751   0.0000000), wk =   0.0078125
        k(   76) = (   0.2500000  -0.2165064   0.0000000), wk =   0.0078125
        k(   77) = (   0.2500000  -0.1443376   0.0000000), wk =   0.0078125
        k(   78) = (   0.2500000  -0.0721688   0.0000000), wk =   0.0078125
        k(   79) = (   0.2500000   0.0000000   0.0000000), wk =   0.0078125
        k(   80) = (   0.2500000   0.0721688   0.0000000), wk =   0.0078125
        k(   81) = (   0.3125000   0.1804220   0.0000000), wk =   0.0078125
        k(   82) = (   0.3125000   0.2525907   0.0000000), wk =   0.0078125
        k(   83) = (   0.3125000   0.3247595   0.0000000), wk =   0.0078125
        k(   84) = (   0.3125000   0.3969283   0.0000000), wk =   0.0078125
        k(   85) = (   0.3125000   0.4690971   0.0000000), wk =   0.0078125
        k(   86) = (   0.3125000   0.5412659   0.0000000), wk =   0.0078125
        k(   87) = (   0.3125000   0.6134347   0.0000000), wk =   0.0078125
        k(   88) = (   0.3125000   0.6856034   0.0000000), wk =   0.0078125
        k(   89) = (   0.3125000  -0.3969283   0.0000000), wk =   0.0078125
        k(   90) = (   0.3125000  -0.3247595   0.0000000), wk =   0.0078125
        k(   91) = (   0.3125000  -0.2525907   0.0000000), wk =   0.0078125
        k(   92) = (   0.3125000  -0.1804220   0.0000000), wk =   0.0078125
        k(   93) = (   0.3125000  -0.1082532   0.0000000), wk =   0.0078125
        k(   94) = (   0.3125000  -0.0360844   0.0000000), wk =   0.0078125
        k(   95) = (   0.3125000   0.0360844   0.0000000), wk =   0.0078125
        k(   96) = (   0.3125000   0.1082532   0.0000000), wk =   0.0078125
        k(   97) = (   0.3750000   0.2165064   0.0000000), wk =   0.0078125
        k(   98) = (   0.3750000   0.2886751   0.0000000), wk =   0.0078125
        k(   99) = (   0.3750000   0.3608439   0.0000000), wk =   0.0078125
        k(  100) = (   0.3750000   0.4330127   0.0000000), wk =   0.0078125
        k(  101) = (   0.3750000   0.5051815   0.0000000), wk =   0.0078125
        k(  102) = (   0.3750000   0.5773503   0.0000000), wk =   0.0078125
        k(  103) = (   0.3750000   0.6495191   0.0000000), wk =   0.0078125
        k(  104) = (   0.3750000   0.7216878   0.0000000), wk =   0.0078125
        k(  105) = (   0.3750000  -0.3608439   0.0000000), wk =   0.0078125
        k(  106) = (   0.3750000  -0.2886751   0.0000000), wk =   0.0078125
        k(  107) = (   0.3750000  -0.2165064   0.0000000), wk =   0.0078125
        k(  108) = (   0.3750000  -0.1443376   0.0000000), wk =   0.0078125
        k(  109) = (   0.3750000  -0.0721688   0.0000000), wk =   0.0078125
        k(  110) = (   0.3750000   0.0000000   0.0000000), wk =   0.0078125
        k(  111) = (   0.3750000   0.0721688   0.0000000), wk =   0.0078125
        k(  112) = (   0.3750000   0.1443376   0.0000000), wk =   0.0078125
        k(  113) = (   0.4375000   0.2525907   0.0000000), wk =   0.0078125
        k(  114) = (   0.4375000   0.3247595   0.0000000), wk =   0.0078125
        k(  115) = (   0.4375000   0.3969283   0.0000000), wk =   0.0078125
        k(  116) = (   0.4375000   0.4690971   0.0000000), wk =   0.0078125
        k(  117) = (   0.4375000   0.5412659   0.0000000), wk =   0.0078125
        k(  118) = (   0.4375000   0.6134347   0.0000000), wk =   0.0078125
        k(  119) = (   0.4375000   0.6856034   0.0000000), wk =   0.0078125
        k(  120) = (   0.4375000   0.7577722   0.0000000), wk =   0.0078125
        k(  121) = (   0.4375000  -0.3247595   0.0000000), wk =   0.0078125
        k(  122) = (   0.4375000  -0.2525907   0.0000000), wk =   0.0078125
        k(  123) = (   0.4375000  -0.1804220   0.0000000), wk =   0.0078125
        k(  124) = (   0.4375000  -0.1082532   0.0000000), wk =   0.0078125
        k(  125) = (   0.4375000  -0.0360844   0.0000000), wk =   0.0078125
        k(  126) = (   0.4375000   0.0360844   0.0000000), wk =   0.0078125
        k(  127) = (   0.4375000   0.1082532   0.0000000), wk =   0.0078125
        k(  128) = (   0.4375000   0.1804220   0.0000000), wk =   0.0078125
        k(  129) = (  -0.5000000  -0.2886751   0.0000000), wk =   0.0078125
        k(  130) = (  -0.5000000  -0.2165064   0.0000000), wk =   0.0078125
        k(  131) = (  -0.5000000  -0.1443376   0.0000000), wk =   0.0078125
        k(  132) = (  -0.5000000  -0.0721688   0.0000000), wk =   0.0078125
        k(  133) = (  -0.5000000   0.0000000   0.0000000), wk =   0.0078125
        k(  134) = (  -0.5000000   0.0721688   0.0000000), wk =   0.0078125
        k(  135) = (  -0.5000000   0.1443376   0.0000000), wk =   0.0078125
        k(  136) = (  -0.5000000   0.2165064   0.0000000), wk =   0.0078125
        k(  137) = (  -0.5000000  -0.8660254   0.0000000), wk =   0.0078125
        k(  138) = (  -0.5000000  -0.7938566   0.0000000), wk =   0.0078125
        k(  139) = (  -0.5000000  -0.7216878   0.0000000), wk =   0.0078125
        k(  140) = (  -0.5000000  -0.6495191   0.0000000), wk =   0.0078125
        k(  141) = (  -0.5000000  -0.5773503   0.0000000), wk =   0.0078125
        k(  142) = (  -0.5000000  -0.5051815   0.0000000), wk =   0.0078125
        k(  143) = (  -0.5000000  -0.4330127   0.0000000), wk =   0.0078125
        k(  144) = (  -0.5000000  -0.3608439   0.0000000), wk =   0.0078125
        k(  145) = (  -0.4375000  -0.2525907   0.0000000), wk =   0.0078125
        k(  146) = (  -0.4375000  -0.1804220   0.0000000), wk =   0.0078125
        k(  147) = (  -0.4375000  -0.1082532   0.0000000), wk =   0.0078125
        k(  148) = (  -0.4375000  -0.0360844   0.0000000), wk =   0.0078125
        k(  149) = (  -0.4375000   0.0360844   0.0000000), wk =   0.0078125
        k(  150) = (  -0.4375000   0.1082532   0.0000000), wk =   0.0078125
        k(  151) = (  -0.4375000   0.1804220   0.0000000), wk =   0.0078125
        k(  152) = (  -0.4375000   0.2525907   0.0000000), wk =   0.0078125
        k(  153) = (  -0.4375000  -0.8299410   0.0000000), wk =   0.0078125
        k(  154) = (  -0.4375000  -0.7577722   0.0000000), wk =   0.0078125
        k(  155) = (  -0.4375000  -0.6856034   0.0000000), wk =   0.0078125
        k(  156) = (  -0.4375000  -0.6134347   0.0000000), wk =   0.0078125
        k(  157) = (  -0.4375000  -0.5412659   0.0000000), wk =   0.0078125
        k(  158) = (  -0.4375000  -0.4690971   0.0000000), wk =   0.0078125
        k(  159) = (  -0.4375000  -0.3969283   0.0000000), wk =   0.0078125
        k(  160) = (  -0.4375000  -0.3247595   0.0000000), wk =   0.0078125
        k(  161) = (  -0.3750000  -0.2165064   0.0000000), wk =   0.0078125
        k(  162) = (  -0.3750000  -0.1443376   0.0000000), wk =   0.0078125
        k(  163) = (  -0.3750000  -0.0721688   0.0000000), wk =   0.0078125
        k(  164) = (  -0.3750000   0.0000000   0.0000000), wk =   0.0078125
        k(  165) = (  -0.3750000   0.0721688   0.0000000), wk =   0.0078125
        k(  166) = (  -0.3750000   0.1443376   0.0000000), wk =   0.0078125
        k(  167) = (  -0.3750000   0.2165064   0.0000000), wk =   0.0078125
        k(  168) = (  -0.3750000   0.2886751   0.0000000), wk =   0.0078125
        k(  169) = (  -0.3750000  -0.7938566   0.0000000), wk =   0.0078125
        k(  170) = (  -0.3750000  -0.7216878   0.0000000), wk =   0.0078125
        k(  171) = (  -0.3750000  -0.6495191   0.0000000), wk =   0.0078125
        k(  172) = (  -0.3750000  -0.5773503   0.0000000), wk =   0.0078125
        k(  173) = (  -0.3750000  -0.5051815   0.0000000), wk =   0.0078125
        k(  174) = (  -0.3750000  -0.4330127   0.0000000), wk =   0.0078125
        k(  175) = (  -0.3750000  -0.3608439   0.0000000), wk =   0.0078125
        k(  176) = (  -0.3750000  -0.2886751   0.0000000), wk =   0.0078125
        k(  177) = (  -0.3125000  -0.1804220   0.0000000), wk =   0.0078125
        k(  178) = (  -0.3125000  -0.1082532   0.0000000), wk =   0.0078125
        k(  179) = (  -0.3125000  -0.0360844   0.0000000), wk =   0.0078125
        k(  180) = (  -0.3125000   0.0360844   0.0000000), wk =   0.0078125
        k(  181) = (  -0.3125000   0.1082532   0.0000000), wk =   0.0078125
        k(  182) = (  -0.3125000   0.1804220   0.0000000), wk =   0.0078125
        k(  183) = (  -0.3125000   0.2525907   0.0000000), wk =   0.0078125
        k(  184) = (  -0.3125000   0.3247595   0.0000000), wk =   0.0078125
        k(  185) = (  -0.3125000  -0.7577722   0.0000000), wk =   0.0078125
        k(  186) = (  -0.3125000  -0.6856034   0.0000000), wk =   0.0078125
        k(  187) = (  -0.3125000  -0.6134347   0.0000000), wk =   0.0078125
        k(  188) = (  -0.3125000  -0.5412659   0.0000000), wk =   0.0078125
        k(  189) = (  -0.3125000  -0.4690971   0.0000000), wk =   0.0078125
        k(  190) = (  -0.3125000  -0.3969283   0.0000000), wk =   0.0078125
        k(  191) = (  -0.3125000  -0.3247595   0.0000000), wk =   0.0078125
        k(  192) = (  -0.3125000  -0.2525907   0.0000000), wk =   0.0078125
        k(  193) = (  -0.2500000  -0.1443376   0.0000000), wk =   0.0078125
        k(  194) = (  -0.2500000  -0.0721688   0.0000000), wk =   0.0078125
        k(  195) = (  -0.2500000   0.0000000   0.0000000), wk =   0.0078125
        k(  196) = (  -0.2500000   0.0721688   0.0000000), wk =   0.0078125
        k(  197) = (  -0.2500000   0.1443376   0.0000000), wk =   0.0078125
        k(  198) = (  -0.2500000   0.2165064   0.0000000), wk =   0.0078125
        k(  199) = (  -0.2500000   0.2886751   0.0000000), wk =   0.0078125
        k(  200) = (  -0.2500000   0.3608439   0.0000000), wk =   0.0078125
        k(  201) = (  -0.2500000  -0.7216878   0.0000000), wk =   0.0078125
        k(  202) = (  -0.2500000  -0.6495191   0.0000000), wk =   0.0078125
        k(  203) = (  -0.2500000  -0.5773503   0.0000000), wk =   0.0078125
        k(  204) = (  -0.2500000  -0.5051815   0.0000000), wk =   0.0078125
        k(  205) = (  -0.2500000  -0.4330127   0.0000000), wk =   0.0078125
        k(  206) = (  -0.2500000  -0.3608439   0.0000000), wk =   0.0078125
        k(  207) = (  -0.2500000  -0.2886751   0.0000000), wk =   0.0078125
        k(  208) = (  -0.2500000  -0.2165064   0.0000000), wk =   0.0078125
        k(  209) = (  -0.1875000  -0.1082532   0.0000000), wk =   0.0078125
        k(  210) = (  -0.1875000  -0.0360844   0.0000000), wk =   0.0078125
        k(  211) = (  -0.1875000   0.0360844   0.0000000), wk =   0.0078125
        k(  212) = (  -0.1875000   0.1082532   0.0000000), wk =   0.0078125
        k(  213) = (  -0.1875000   0.1804220   0.0000000), wk =   0.0078125
        k(  214) = (  -0.1875000   0.2525907   0.0000000), wk =   0.0078125
        k(  215) = (  -0.1875000   0.3247595   0.0000000), wk =   0.0078125
        k(  216) = (  -0.1875000   0.3969283   0.0000000), wk =   0.0078125
        k(  217) = (  -0.1875000  -0.6856034   0.0000000), wk =   0.0078125
        k(  218) = (  -0.1875000  -0.6134347   0.0000000), wk =   0.0078125
        k(  219) = (  -0.1875000  -0.5412659   0.0000000), wk =   0.0078125
        k(  220) = (  -0.1875000  -0.4690971   0.0000000), wk =   0.0078125
        k(  221) = (  -0.1875000  -0.3969283   0.0000000), wk =   0.0078125
        k(  222) = (  -0.1875000  -0.3247595   0.0000000), wk =   0.0078125
        k(  223) = (  -0.1875000  -0.2525907   0.0000000), wk =   0.0078125
        k(  224) = (  -0.1875000  -0.1804220   0.0000000), wk =   0.0078125
        k(  225) = (  -0.1250000  -0.0721688   0.0000000), wk =   0.0078125
        k(  226) = (  -0.1250000   0.0000000   0.0000000), wk =   0.0078125
        k(  227) = (  -0.1250000   0.0721688   0.0000000), wk =   0.0078125
        k(  228) = (  -0.1250000   0.1443376   0.0000000), wk =   0.0078125
        k(  229) = (  -0.1250000   0.2165064   0.0000000), wk =   0.0078125
        k(  230) = (  -0.1250000   0.2886751   0.0000000), wk =   0.0078125
        k(  231) = (  -0.1250000   0.3608439   0.0000000), wk =   0.0078125
        k(  232) = (  -0.1250000   0.4330127   0.0000000), wk =   0.0078125
        k(  233) = (  -0.1250000  -0.6495191   0.0000000), wk =   0.0078125
        k(  234) = (  -0.1250000  -0.5773503   0.0000000), wk =   0.0078125
        k(  235) = (  -0.1250000  -0.5051815   0.0000000), wk =   0.0078125
        k(  236) = (  -0.1250000  -0.4330127   0.0000000), wk =   0.0078125
        k(  237) = (  -0.1250000  -0.3608439   0.0000000), wk =   0.0078125
        k(  238) = (  -0.1250000  -0.2886751   0.0000000), wk =   0.0078125
        k(  239) = (  -0.1250000  -0.2165064   0.0000000), wk =   0.0078125
        k(  240) = (  -0.1250000  -0.1443376   0.0000000), wk =   0.0078125
        k(  241) = (  -0.0625000  -0.0360844   0.0000000), wk =   0.0078125
        k(  242) = (  -0.0625000   0.0360844   0.0000000), wk =   0.0078125
        k(  243) = (  -0.0625000   0.1082532   0.0000000), wk =   0.0078125
        k(  244) = (  -0.0625000   0.1804220   0.0000000), wk =   0.0078125
        k(  245) = (  -0.0625000   0.2525907   0.0000000), wk =   0.0078125
        k(  246) = (  -0.0625000   0.3247595   0.0000000), wk =   0.0078125
        k(  247) = (  -0.0625000   0.3969283   0.0000000), wk =   0.0078125
        k(  248) = (  -0.0625000   0.4690971   0.0000000), wk =   0.0078125
        k(  249) = (  -0.0625000  -0.6134347   0.0000000), wk =   0.0078125
        k(  250) = (  -0.0625000  -0.5412659   0.0000000), wk =   0.0078125
        k(  251) = (  -0.0625000  -0.4690971   0.0000000), wk =   0.0078125
        k(  252) = (  -0.0625000  -0.3969283   0.0000000), wk =   0.0078125
        k(  253) = (  -0.0625000  -0.3247595   0.0000000), wk =   0.0078125
        k(  254) = (  -0.0625000  -0.2525907   0.0000000), wk =   0.0078125
        k(  255) = (  -0.0625000  -0.1804220   0.0000000), wk =   0.0078125
        k(  256) = (  -0.0625000  -0.1082532   0.0000000), wk =   0.0078125

                       cryst. coord.
        k(    1) = (   0.0000000   0.0000000   0.0000000), wk =   0.0078125
        k(    2) = (   0.0000000   0.0625000   0.0000000), wk =   0.0078125
        k(    3) = (   0.0000000   0.1250000   0.0000000), wk =   0.0078125
        k(    4) = (   0.0000000   0.1875000   0.0000000), wk =   0.0078125
        k(    5) = (   0.0000000   0.2500000   0.0000000), wk =   0.0078125
        k(    6) = (   0.0000000   0.3125000   0.0000000), wk =   0.0078125
        k(    7) = (   0.0000000   0.3750000   0.0000000), wk =   0.0078125
        k(    8) = (   0.0000000   0.4375000   0.0000000), wk =   0.0078125
        k(    9) = (   0.0000000  -0.5000000   0.0000000), wk =   0.0078125
        k(   10) = (   0.0000000  -0.4375000   0.0000000), wk =   0.0078125
        k(   11) = (   0.0000000  -0.3750000   0.0000000), wk =   0.0078125
        k(   12) = (   0.0000000  -0.3125000   0.0000000), wk =   0.0078125
        k(   13) = (   0.0000000  -0.2500000   0.0000000), wk =   0.0078125
        k(   14) = (   0.0000000  -0.1875000   0.0000000), wk =   0.0078125
        k(   15) = (   0.0000000  -0.1250000   0.0000000), wk =   0.0078125
        k(   16) = (   0.0000000  -0.0625000   0.0000000), wk =   0.0078125
        k(   17) = (   0.0625000  -0.0000000   0.0000000), wk =   0.0078125
        k(   18) = (   0.0625000   0.0625000   0.0000000), wk =   0.0078125
        k(   19) = (   0.0625000   0.1250000   0.0000000), wk =   0.0078125
        k(   20) = (   0.0625000   0.1875000   0.0000000), wk =   0.0078125
        k(   21) = (   0.0625000   0.2500000   0.0000000), wk =   0.0078125
        k(   22) = (   0.0625000   0.3125000   0.0000000), wk =   0.0078125
        k(   23) = (   0.0625000   0.3750000   0.0000000), wk =   0.0078125
        k(   24) = (   0.0625000   0.4375000   0.0000000), wk =   0.0078125
        k(   25) = (   0.0625000  -0.5000000   0.0000000), wk =   0.0078125
        k(   26) = (   0.0625000  -0.4375000   0.0000000), wk =   0.0078125
        k(   27) = (   0.0625000  -0.3750000   0.0000000), wk =   0.0078125
        k(   28) = (   0.0625000  -0.3125000   0.0000000), wk =   0.0078125
        k(   29) = (   0.0625000  -0.2500000   0.0000000), wk =   0.0078125
        k(   30) = (   0.0625000  -0.1875000   0.0000000), wk =   0.0078125
        k(   31) = (   0.0625000  -0.1250000   0.0000000), wk =   0.0078125
        k(   32) = (   0.0625000  -0.0625000   0.0000000), wk =   0.0078125
        k(   33) = (   0.1250000  -0.0000000   0.0000000), wk =   0.0078125
        k(   34) = (   0.1250000   0.0625000   0.0000000), wk =   0.0078125
        k(   35) = (   0.1250000   0.1250000   0.0000000), wk =   0.0078125
        k(   36) = (   0.1250000   0.1875000   0.0000000), wk =   0.0078125
        k(   37) = (   0.1250000   0.2500000   0.0000000), wk =   0.0078125
        k(   38) = (   0.1250000   0.3125000   0.0000000), wk =   0.0078125
        k(   39) = (   0.1250000   0.3750000   0.0000000), wk =   0.0078125
        k(   40) = (   0.1250000   0.4375000   0.0000000), wk =   0.0078125
        k(   41) = (   0.1250000  -0.5000000   0.0000000), wk =   0.0078125
        k(   42) = (   0.1250000  -0.4375000   0.0000000), wk =   0.0078125
        k(   43) = (   0.1250000  -0.3750000   0.0000000), wk =   0.0078125
        k(   44) = (   0.1250000  -0.3125000   0.0000000), wk =   0.0078125
        k(   45) = (   0.1250000  -0.2500000   0.0000000), wk =   0.0078125
        k(   46) = (   0.1250000  -0.1875000   0.0000000), wk =   0.0078125
        k(   47) = (   0.1250000  -0.1250000   0.0000000), wk =   0.0078125
        k(   48) = (   0.1250000  -0.0625000   0.0000000), wk =   0.0078125
        k(   49) = (   0.1875000  -0.0000000   0.0000000), wk =   0.0078125
        k(   50) = (   0.1875000   0.0625000   0.0000000), wk =   0.0078125
        k(   51) = (   0.1875000   0.1250000   0.0000000), wk =   0.0078125
        k(   52) = (   0.1875000   0.1875000   0.0000000), wk =   0.0078125
        k(   53) = (   0.1875000   0.2500000   0.0000000), wk =   0.0078125
        k(   54) = (   0.1875000   0.3125000   0.0000000), wk =   0.0078125
        k(   55) = (   0.1875000   0.3750000   0.0000000), wk =   0.0078125
        k(   56) = (   0.1875000   0.4375000   0.0000000), wk =   0.0078125
        k(   57) = (   0.1875000  -0.5000000   0.0000000), wk =   0.0078125
        k(   58) = (   0.1875000  -0.4375000   0.0000000), wk =   0.0078125
        k(   59) = (   0.1875000  -0.3750000   0.0000000), wk =   0.0078125
        k(   60) = (   0.1875000  -0.3125000   0.0000000), wk =   0.0078125
        k(   61) = (   0.1875000  -0.2500000   0.0000000), wk =   0.0078125
        k(   62) = (   0.1875000  -0.1875000   0.0000000), wk =   0.0078125
        k(   63) = (   0.1875000  -0.1250000   0.0000000), wk =   0.0078125
        k(   64) = (   0.1875000  -0.0625000   0.0000000), wk =   0.0078125
        k(   65) = (   0.2500000  -0.0000000   0.0000000), wk =   0.0078125
        k(   66) = (   0.2500000   0.0625000   0.0000000), wk =   0.0078125
        k(   67) = (   0.2500000   0.1250000   0.0000000), wk =   0.0078125
        k(   68) = (   0.2500000   0.1875000   0.0000000), wk =   0.0078125
        k(   69) = (   0.2500000   0.2500000   0.0000000), wk =   0.0078125
        k(   70) = (   0.2500000   0.3125000   0.0000000), wk =   0.0078125
        k(   71) = (   0.2500000   0.3750000   0.0000000), wk =   0.0078125
        k(   72) = (   0.2500000   0.4375000   0.0000000), wk =   0.0078125
        k(   73) = (   0.2500000  -0.5000000   0.0000000), wk =   0.0078125
        k(   74) = (   0.2500000  -0.4375000   0.0000000), wk =   0.0078125
        k(   75) = (   0.2500000  -0.3750000   0.0000000), wk =   0.0078125
        k(   76) = (   0.2500000  -0.3125000   0.0000000), wk =   0.0078125
        k(   77) = (   0.2500000  -0.2500000   0.0000000), wk =   0.0078125
        k(   78) = (   0.2500000  -0.1875000   0.0000000), wk =   0.0078125
        k(   79) = (   0.2500000  -0.1250000   0.0000000), wk =   0.0078125
        k(   80) = (   0.2500000  -0.0625000   0.0000000), wk =   0.0078125
        k(   81) = (   0.3125000  -0.0000000   0.0000000), wk =   0.0078125
        k(   82) = (   0.3125000   0.0625000   0.0000000), wk =   0.0078125
        k(   83) = (   0.3125000   0.1250000   0.0000000), wk =   0.0078125
        k(   84) = (   0.3125000   0.1875000   0.0000000), wk =   0.0078125
        k(   85) = (   0.3125000   0.2500000   0.0000000), wk =   0.0078125
        k(   86) = (   0.3125000   0.3125000   0.0000000), wk =   0.0078125
        k(   87) = (   0.3125000   0.3750000   0.0000000), wk =   0.0078125
        k(   88) = (   0.3125000   0.4375000   0.0000000), wk =   0.0078125
        k(   89) = (   0.3125000  -0.5000000   0.0000000), wk =   0.0078125
        k(   90) = (   0.3125000  -0.4375000   0.0000000), wk =   0.0078125
        k(   91) = (   0.3125000  -0.3750000   0.0000000), wk =   0.0078125
        k(   92) = (   0.3125000  -0.3125000   0.0000000), wk =   0.0078125
        k(   93) = (   0.3125000  -0.2500000   0.0000000), wk =   0.0078125
        k(   94) = (   0.3125000  -0.1875000   0.0000000), wk =   0.0078125
        k(   95) = (   0.3125000  -0.1250000   0.0000000), wk =   0.0078125
        k(   96) = (   0.3125000  -0.0625000   0.0000000), wk =   0.0078125
        k(   97) = (   0.3750000  -0.0000000   0.0000000), wk =   0.0078125
        k(   98) = (   0.3750000   0.0625000   0.0000000), wk =   0.0078125
        k(   99) = (   0.3750000   0.1250000   0.0000000), wk =   0.0078125
        k(  100) = (   0.3750000   0.1875000   0.0000000), wk =   0.0078125
        k(  101) = (   0.3750000   0.2500000   0.0000000), wk =   0.0078125
        k(  102) = (   0.3750000   0.3125000   0.0000000), wk =   0.0078125
        k(  103) = (   0.3750000   0.3750000   0.0000000), wk =   0.0078125
        k(  104) = (   0.3750000   0.4375000   0.0000000), wk =   0.0078125
        k(  105) = (   0.3750000  -0.5000000   0.0000000), wk =   0.0078125
        k(  106) = (   0.3750000  -0.4375000   0.0000000), wk =   0.0078125
        k(  107) = (   0.3750000  -0.3750000   0.0000000), wk =   0.0078125
        k(  108) = (   0.3750000  -0.3125000   0.0000000), wk =   0.0078125
        k(  109) = (   0.3750000  -0.2500000   0.0000000), wk =   0.0078125
        k(  110) = (   0.3750000  -0.1875000   0.0000000), wk =   0.0078125
        k(  111) = (   0.3750000  -0.1250000   0.0000000), wk =   0.0078125
        k(  112) = (   0.3750000  -0.0625000   0.0000000), wk =   0.0078125
        k(  113) = (   0.4375000  -0.0000000   0.0000000), wk =   0.0078125
        k(  114) = (   0.4375000   0.0625000   0.0000000), wk =   0.0078125
        k(  115) = (   0.4375000   0.1250000   0.0000000), wk =   0.0078125
        k(  116) = (   0.4375000   0.1875000   0.0000000), wk =   0.0078125
        k(  117) = (   0.4375000   0.2500000   0.0000000), wk =   0.0078125
        k(  118) = (   0.4375000   0.3125000   0.0000000), wk =   0.0078125
        k(  119) = (   0.4375000   0.3750000   0.0000000), wk =   0.0078125
        k(  120) = (   0.4375000   0.4375000   0.0000000), wk =   0.0078125
        k(  121) = (   0.4375000  -0.5000000   0.0000000), wk =   0.0078125
        k(  122) = (   0.4375000  -0.4375000   0.0000000), wk =   0.0078125
        k(  123) = (   0.4375000  -0.3750000   0.0000000), wk =   0.0078125
        k(  124) = (   0.4375000  -0.3125000   0.0000000), wk =   0.0078125
        k(  125) = (   0.4375000  -0.2500000   0.0000000), wk =   0.0078125
        k(  126) = (   0.4375000  -0.1875000   0.0000000), wk =   0.0078125
        k(  127) = (   0.4375000  -0.1250000   0.0000000), wk =   0.0078125
        k(  128) = (   0.4375000  -0.0625000   0.0000000), wk =   0.0078125
        k(  129) = (  -0.5000000   0.0000000   0.0000000), wk =   0.0078125
        k(  130) = (  -0.5000000   0.0625000   0.0000000), wk =   0.0078125
        k(  131) = (  -0.5000000   0.1250000   0.0000000), wk =   0.0078125
        k(  132) = (  -0.5000000   0.1875000   0.0000000), wk =   0.0078125
        k(  133) = (  -0.5000000   0.2500000   0.0000000), wk =   0.0078125
        k(  134) = (  -0.5000000   0.3125000   0.0000000), wk =   0.0078125
        k(  135) = (  -0.5000000   0.3750000   0.0000000), wk =   0.0078125
        k(  136) = (  -0.5000000   0.4375000   0.0000000), wk =   0.0078125
        k(  137) = (  -0.5000000  -0.5000000   0.0000000), wk =   0.0078125
        k(  138) = (  -0.5000000  -0.4375000   0.0000000), wk =   0.0078125
        k(  139) = (  -0.5000000  -0.3750000   0.0000000), wk =   0.0078125
        k(  140) = (  -0.5000000  -0.3125000   0.0000000), wk =   0.0078125
        k(  141) = (  -0.5000000  -0.2500000   0.0000000), wk =   0.0078125
        k(  142) = (  -0.5000000  -0.1875000   0.0000000), wk =   0.0078125
        k(  143) = (  -0.5000000  -0.1250000   0.0000000), wk =   0.0078125
        k(  144) = (  -0.5000000  -0.0625000   0.0000000), wk =   0.0078125
        k(  145) = (  -0.4375000   0.0000000   0.0000000), wk =   0.0078125
        k(  146) = (  -0.4375000   0.0625000   0.0000000), wk =   0.0078125
        k(  147) = (  -0.4375000   0.1250000   0.0000000), wk =   0.0078125
        k(  148) = (  -0.4375000   0.1875000   0.0000000), wk =   0.0078125
        k(  149) = (  -0.4375000   0.2500000   0.0000000), wk =   0.0078125
        k(  150) = (  -0.4375000   0.3125000   0.0000000), wk =   0.0078125
        k(  151) = (  -0.4375000   0.3750000   0.0000000), wk =   0.0078125
        k(  152) = (  -0.4375000   0.4375000   0.0000000), wk =   0.0078125
        k(  153) = (  -0.4375000  -0.5000000   0.0000000), wk =   0.0078125
        k(  154) = (  -0.4375000  -0.4375000   0.0000000), wk =   0.0078125
        k(  155) = (  -0.4375000  -0.3750000   0.0000000), wk =   0.0078125
        k(  156) = (  -0.4375000  -0.3125000   0.0000000), wk =   0.0078125
        k(  157) = (  -0.4375000  -0.2500000   0.0000000), wk =   0.0078125
        k(  158) = (  -0.4375000  -0.1875000   0.0000000), wk =   0.0078125
        k(  159) = (  -0.4375000  -0.1250000   0.0000000), wk =   0.0078125
        k(  160) = (  -0.4375000  -0.0625000   0.0000000), wk =   0.0078125
        k(  161) = (  -0.3750000   0.0000000   0.0000000), wk =   0.0078125
        k(  162) = (  -0.3750000   0.0625000   0.0000000), wk =   0.0078125
        k(  163) = (  -0.3750000   0.1250000   0.0000000), wk =   0.0078125
        k(  164) = (  -0.3750000   0.1875000   0.0000000), wk =   0.0078125
        k(  165) = (  -0.3750000   0.2500000   0.0000000), wk =   0.0078125
        k(  166) = (  -0.3750000   0.3125000   0.0000000), wk =   0.0078125
        k(  167) = (  -0.3750000   0.3750000   0.0000000), wk =   0.0078125
        k(  168) = (  -0.3750000   0.4375000   0.0000000), wk =   0.0078125
        k(  169) = (  -0.3750000  -0.5000000   0.0000000), wk =   0.0078125
        k(  170) = (  -0.3750000  -0.4375000   0.0000000), wk =   0.0078125
        k(  171) = (  -0.3750000  -0.3750000   0.0000000), wk =   0.0078125
        k(  172) = (  -0.3750000  -0.3125000   0.0000000), wk =   0.0078125
        k(  173) = (  -0.3750000  -0.2500000   0.0000000), wk =   0.0078125
        k(  174) = (  -0.3750000  -0.1875000   0.0000000), wk =   0.0078125
        k(  175) = (  -0.3750000  -0.1250000   0.0000000), wk =   0.0078125
        k(  176) = (  -0.3750000  -0.0625000   0.0000000), wk =   0.0078125
        k(  177) = (  -0.3125000   0.0000000   0.0000000), wk =   0.0078125
        k(  178) = (  -0.3125000   0.0625000   0.0000000), wk =   0.0078125
        k(  179) = (  -0.3125000   0.1250000   0.0000000), wk =   0.0078125
        k(  180) = (  -0.3125000   0.1875000   0.0000000), wk =   0.0078125
        k(  181) = (  -0.3125000   0.2500000   0.0000000), wk =   0.0078125
        k(  182) = (  -0.3125000   0.3125000   0.0000000), wk =   0.0078125
        k(  183) = (  -0.3125000   0.3750000   0.0000000), wk =   0.0078125
        k(  184) = (  -0.3125000   0.4375000   0.0000000), wk =   0.0078125
        k(  185) = (  -0.3125000  -0.5000000   0.0000000), wk =   0.0078125
        k(  186) = (  -0.3125000  -0.4375000   0.0000000), wk =   0.0078125
        k(  187) = (  -0.3125000  -0.3750000   0.0000000), wk =   0.0078125
        k(  188) = (  -0.3125000  -0.3125000   0.0000000), wk =   0.0078125
        k(  189) = (  -0.3125000  -0.2500000   0.0000000), wk =   0.0078125
        k(  190) = (  -0.3125000  -0.1875000   0.0000000), wk =   0.0078125
        k(  191) = (  -0.3125000  -0.1250000   0.0000000), wk =   0.0078125
        k(  192) = (  -0.3125000  -0.0625000   0.0000000), wk =   0.0078125
        k(  193) = (  -0.2500000   0.0000000   0.0000000), wk =   0.0078125
        k(  194) = (  -0.2500000   0.0625000   0.0000000), wk =   0.0078125
        k(  195) = (  -0.2500000   0.1250000   0.0000000), wk =   0.0078125
        k(  196) = (  -0.2500000   0.1875000   0.0000000), wk =   0.0078125
        k(  197) = (  -0.2500000   0.2500000   0.0000000), wk =   0.0078125
        k(  198) = (  -0.2500000   0.3125000   0.0000000), wk =   0.0078125
        k(  199) = (  -0.2500000   0.3750000   0.0000000), wk =   0.0078125
        k(  200) = (  -0.2500000   0.4375000   0.0000000), wk =   0.0078125
        k(  201) = (  -0.2500000  -0.5000000   0.0000000), wk =   0.0078125
        k(  202) = (  -0.2500000  -0.4375000   0.0000000), wk =   0.0078125
        k(  203) = (  -0.2500000  -0.3750000   0.0000000), wk =   0.0078125
        k(  204) = (  -0.2500000  -0.3125000   0.0000000), wk =   0.0078125
        k(  205) = (  -0.2500000  -0.2500000   0.0000000), wk =   0.0078125
        k(  206) = (  -0.2500000  -0.1875000   0.0000000), wk =   0.0078125
        k(  207) = (  -0.2500000  -0.1250000   0.0000000), wk =   0.0078125
        k(  208) = (  -0.2500000  -0.0625000   0.0000000), wk =   0.0078125
        k(  209) = (  -0.1875000   0.0000000   0.0000000), wk =   0.0078125
        k(  210) = (  -0.1875000   0.0625000   0.0000000), wk =   0.0078125
        k(  211) = (  -0.1875000   0.1250000   0.0000000), wk =   0.0078125
        k(  212) = (  -0.1875000   0.1875000   0.0000000), wk =   0.0078125
        k(  213) = (  -0.1875000   0.2500000   0.0000000), wk =   0.0078125
        k(  214) = (  -0.1875000   0.3125000   0.0000000), wk =   0.0078125
        k(  215) = (  -0.1875000   0.3750000   0.0000000), wk =   0.0078125
        k(  216) = (  -0.1875000   0.4375000   0.0000000), wk =   0.0078125
        k(  217) = (  -0.1875000  -0.5000000   0.0000000), wk =   0.0078125
        k(  218) = (  -0.1875000  -0.4375000   0.0000000), wk =   0.0078125
        k(  219) = (  -0.1875000  -0.3750000   0.0000000), wk =   0.0078125
        k(  220) = (  -0.1875000  -0.3125000   0.0000000), wk =   0.0078125
        k(  221) = (  -0.1875000  -0.2500000   0.0000000), wk =   0.0078125
        k(  222) = (  -0.1875000  -0.1875000   0.0000000), wk =   0.0078125
        k(  223) = (  -0.1875000  -0.1250000   0.0000000), wk =   0.0078125
        k(  224) = (  -0.1875000  -0.0625000   0.0000000), wk =   0.0078125
        k(  225) = (  -0.1250000   0.0000000   0.0000000), wk =   0.0078125
        k(  226) = (  -0.1250000   0.0625000   0.0000000), wk =   0.0078125
        k(  227) = (  -0.1250000   0.1250000   0.0000000), wk =   0.0078125
        k(  228) = (  -0.1250000   0.1875000   0.0000000), wk =   0.0078125
        k(  229) = (  -0.1250000   0.2500000   0.0000000), wk =   0.0078125
        k(  230) = (  -0.1250000   0.3125000   0.0000000), wk =   0.0078125
        k(  231) = (  -0.1250000   0.3750000   0.0000000), wk =   0.0078125
        k(  232) = (  -0.1250000   0.4375000   0.0000000), wk =   0.0078125
        k(  233) = (  -0.1250000  -0.5000000   0.0000000), wk =   0.0078125
        k(  234) = (  -0.1250000  -0.4375000   0.0000000), wk =   0.0078125
        k(  235) = (  -0.1250000  -0.3750000   0.0000000), wk =   0.0078125
        k(  236) = (  -0.1250000  -0.3125000   0.0000000), wk =   0.0078125
        k(  237) = (  -0.1250000  -0.2500000   0.0000000), wk =   0.0078125
        k(  238) = (  -0.1250000  -0.1875000   0.0000000), wk =   0.0078125
        k(  239) = (  -0.1250000  -0.1250000   0.0000000), wk =   0.0078125
        k(  240) = (  -0.1250000  -0.0625000   0.0000000), wk =   0.0078125
        k(  241) = (  -0.0625000   0.0000000   0.0000000), wk =   0.0078125
        k(  242) = (  -0.0625000   0.0625000   0.0000000), wk =   0.0078125
        k(  243) = (  -0.0625000   0.1250000   0.0000000), wk =   0.0078125
        k(  244) = (  -0.0625000   0.1875000   0.0000000), wk =   0.0078125
        k(  245) = (  -0.0625000   0.2500000   0.0000000), wk =   0.0078125
        k(  246) = (  -0.0625000   0.3125000   0.0000000), wk =   0.0078125
        k(  247) = (  -0.0625000   0.3750000   0.0000000), wk =   0.0078125
        k(  248) = (  -0.0625000   0.4375000   0.0000000), wk =   0.0078125
        k(  249) = (  -0.0625000  -0.5000000   0.0000000), wk =   0.0078125
        k(  250) = (  -0.0625000  -0.4375000   0.0000000), wk =   0.0078125
        k(  251) = (  -0.0625000  -0.3750000   0.0000000), wk =   0.0078125
        k(  252) = (  -0.0625000  -0.3125000   0.0000000), wk =   0.0078125
        k(  253) = (  -0.0625000  -0.2500000   0.0000000), wk =   0.0078125
        k(  254) = (  -0.0625000  -0.1875000   0.0000000), wk =   0.0078125
        k(  255) = (  -0.0625000  -0.1250000   0.0000000), wk =   0.0078125
        k(  256) = (  -0.0625000  -0.0625000   0.0000000), wk =   0.0078125

     Dense  grid:   409943 G-vectors     FFT dimensions: (  54,  54, 360)

     Smooth grid:   385631 G-vectors     FFT dimensions: (  54,  54, 324)

     Dynamical RAM for                 wfc:       0.73 MB

     Dynamical RAM for     wfc (w. buffer):       0.73 MB

     Dynamical RAM for           str. fact:       0.63 MB

     Dynamical RAM for           local pot:       0.00 MB

     Dynamical RAM for          nlocal pot:       1.98 MB

     Dynamical RAM for                qrad:       3.59 MB

     Dynamical RAM for          rho,v,vnew:       2.14 MB

     Dynamical RAM for           G-vectors:       1.32 MB

     Dynamical RAM for          h,s,v(r/c):       0.07 MB

     Dynamical RAM for          <psi|beta>:       0.02 MB

     Dynamical RAM for                 psi:       1.47 MB

     Dynamical RAM for                hpsi:       1.47 MB

     Dynamical RAM for      wfcinit/wfcrot:       1.48 MB

     Estimated static dynamical RAM per process >      13.33 MB

     Estimated max dynamical RAM per process >      16.36 MB

     Estimated total dynamical RAM >     327.27 MB

     The potential is recalculated from file :
     ./tmp/c.save/charge-density

     Starting wfcs are   18 randomized atomic wfcs +    2 random wfcs

     Band Structure Calculation
     Davidson diagonalization with overlap

     Computing kpt #:     1  of   256
     total cpu time spent up to now is        1.4 secs

     Computing kpt #:     2  of   256
     total cpu time spent up to now is        1.7 secs

     Computing kpt #:     3  of   256
     total cpu time spent up to now is        2.1 secs

     Computing kpt #:     4  of   256
     total cpu time spent up to now is        2.4 secs

     Computing kpt #:     5  of   256
     total cpu time spent up to now is        2.8 secs

     Computing kpt #:     6  of   256
     total cpu time spent up to now is        3.1 secs

     Computing kpt #:     7  of   256
     total cpu time spent up to now is        3.4 secs

     Computing kpt #:     8  of   256
     total cpu time spent up to now is        3.7 secs

     Computing kpt #:     9  of   256
     total cpu time spent up to now is        4.0 secs

     Computing kpt #:    10  of   256
     total cpu time spent up to now is        4.3 secs

     Computing kpt #:    11  of   256
     total cpu time spent up to now is        4.6 secs

     Computing kpt #:    12  of   256
     total cpu time spent up to now is        4.9 secs

     Computing kpt #:    13  of   256
     total cpu time spent up to now is        5.3 secs

     Computing kpt #:    14  of   256
     total cpu time spent up to now is        5.6 secs

     Computing kpt #:    15  of   256
     total cpu time spent up to now is        5.9 secs

     Computing kpt #:    16  of   256
     total cpu time spent up to now is        6.3 secs

     Computing kpt #:    17  of   256
     total cpu time spent up to now is        6.6 secs

     Computing kpt #:    18  of   256
     total cpu time spent up to now is        7.1 secs

     Computing kpt #:    19  of   256
     total cpu time spent up to now is        7.4 secs

     Computing kpt #:    20  of   256
     total cpu time spent up to now is        7.7 secs

     Computing kpt #:    21  of   256
     total cpu time spent up to now is        8.1 secs

     Computing kpt #:    22  of   256
     total cpu time spent up to now is        8.4 secs

     Computing kpt #:    23  of   256
     total cpu time spent up to now is        8.7 secs

     Computing kpt #:    24  of   256
     total cpu time spent up to now is        9.0 secs

     Computing kpt #:    25  of   256
     total cpu time spent up to now is        9.4 secs

     Computing kpt #:    26  of   256
     total cpu time spent up to now is        9.7 secs

     Computing kpt #:    27  of   256
     total cpu time spent up to now is       10.0 secs

     Computing kpt #:    28  of   256
     total cpu time spent up to now is       10.3 secs

     Computing kpt #:    29  of   256
     total cpu time spent up to now is       10.7 secs

     Computing kpt #:    30  of   256
     total cpu time spent up to now is       11.0 secs

     Computing kpt #:    31  of   256
     total cpu time spent up to now is       11.4 secs

     Computing kpt #:    32  of   256
     total cpu time spent up to now is       11.7 secs

     Computing kpt #:    33  of   256
     total cpu time spent up to now is       12.1 secs

     Computing kpt #:    34  of   256
     total cpu time spent up to now is       12.4 secs

     Computing kpt #:    35  of   256
     total cpu time spent up to now is       12.7 secs

     Computing kpt #:    36  of   256
     total cpu time spent up to now is       13.1 secs

     Computing kpt #:    37  of   256
     total cpu time spent up to now is       13.4 secs

     Computing kpt #:    38  of   256
     total cpu time spent up to now is       13.7 secs

     Computing kpt #:    39  of   256
     total cpu time spent up to now is       14.0 secs

     Computing kpt #:    40  of   256
     total cpu time spent up to now is       14.4 secs

     Computing kpt #:    41  of   256
     total cpu time spent up to now is       14.7 secs

     Computing kpt #:    42  of   256
     total cpu time spent up to now is       15.1 secs

     Computing kpt #:    43  of   256
     total cpu time spent up to now is       15.4 secs

     Computing kpt #:    44  of   256
     total cpu time spent up to now is       15.7 secs

     Computing kpt #:    45  of   256
     total cpu time spent up to now is       16.0 secs

     Computing kpt #:    46  of   256
     total cpu time spent up to now is       16.4 secs

     Computing kpt #:    47  of   256
     total cpu time spent up to now is       16.7 secs

     Computing kpt #:    48  of   256
     total cpu time spent up to now is       17.1 secs

     Computing kpt #:    49  of   256
     total cpu time spent up to now is       17.5 secs

     Computing kpt #:    50  of   256
     total cpu time spent up to now is       17.8 secs

     Computing kpt #:    51  of   256
     total cpu time spent up to now is       18.1 secs

     Computing kpt #:    52  of   256
     total cpu time spent up to now is       18.4 secs

     Computing kpt #:    53  of   256
     total cpu time spent up to now is       18.8 secs

     Computing kpt #:    54  of   256
     total cpu time spent up to now is       19.2 secs

     Computing kpt #:    55  of   256
     total cpu time spent up to now is       19.5 secs

     Computing kpt #:    56  of   256
     total cpu time spent up to now is       19.8 secs

     Computing kpt #:    57  of   256
     total cpu time spent up to now is       20.2 secs

     Computing kpt #:    58  of   256
     total cpu time spent up to now is       20.6 secs

     Computing kpt #:    59  of   256
     total cpu time spent up to now is       20.9 secs

     Computing kpt #:    60  of   256
     total cpu time spent up to now is       21.2 secs

     Computing kpt #:    61  of   256
     total cpu time spent up to now is       21.5 secs

     Computing kpt #:    62  of   256
     total cpu time spent up to now is       21.9 secs

     Computing kpt #:    63  of   256
     total cpu time spent up to now is       22.2 secs

     Computing kpt #:    64  of   256
     total cpu time spent up to now is       22.6 secs

     Computing kpt #:    65  of   256
     total cpu time spent up to now is       22.9 secs

     Computing kpt #:    66  of   256
     total cpu time spent up to now is       23.2 secs

     Computing kpt #:    67  of   256
     total cpu time spent up to now is       23.6 secs

     Computing kpt #:    68  of   256
     total cpu time spent up to now is       23.9 secs

     Computing kpt #:    69  of   256
     total cpu time spent up to now is       24.2 secs

     Computing kpt #:    70  of   256
     total cpu time spent up to now is       24.5 secs

     Computing kpt #:    71  of   256
     total cpu time spent up to now is       24.9 secs

     Computing kpt #:    72  of   256
     total cpu time spent up to now is       25.2 secs

     Computing kpt #:    73  of   256
     total cpu time spent up to now is       25.5 secs

     Computing kpt #:    74  of   256
     total cpu time spent up to now is       25.9 secs

     Computing kpt #:    75  of   256
     total cpu time spent up to now is       26.2 secs

     Computing kpt #:    76  of   256
     total cpu time spent up to now is       26.5 secs

     Computing kpt #:    77  of   256
     total cpu time spent up to now is       26.8 secs

     Computing kpt #:    78  of   256
     total cpu time spent up to now is       27.2 secs

     Computing kpt #:    79  of   256
     total cpu time spent up to now is       27.5 secs

     Computing kpt #:    80  of   256
     total cpu time spent up to now is       27.8 secs

     Computing kpt #:    81  of   256
     total cpu time spent up to now is       28.2 secs

     Computing kpt #:    82  of   256
     total cpu time spent up to now is       28.5 secs

     Computing kpt #:    83  of   256
     total cpu time spent up to now is       28.8 secs

     Computing kpt #:    84  of   256
     total cpu time spent up to now is       29.2 secs

     Computing kpt #:    85  of   256
     total cpu time spent up to now is       29.5 secs

     Computing kpt #:    86  of   256
     total cpu time spent up to now is       29.9 secs

     Computing kpt #:    87  of   256
     total cpu time spent up to now is       30.2 secs

     Computing kpt #:    88  of   256
     total cpu time spent up to now is       30.5 secs

     Computing kpt #:    89  of   256
     total cpu time spent up to now is       30.8 secs

     Computing kpt #:    90  of   256
     total cpu time spent up to now is       31.2 secs

     Computing kpt #:    91  of   256
     total cpu time spent up to now is       31.5 secs

     Computing kpt #:    92  of   256
     total cpu time spent up to now is       31.8 secs

     Computing kpt #:    93  of   256
     total cpu time spent up to now is       32.2 secs

     Computing kpt #:    94  of   256
     total cpu time spent up to now is       32.5 secs

     Computing kpt #:    95  of   256
     total cpu time spent up to now is       32.8 secs

     Computing kpt #:    96  of   256
     total cpu time spent up to now is       33.1 secs

     Computing kpt #:    97  of   256
     total cpu time spent up to now is       33.5 secs

     Computing kpt #:    98  of   256
     total cpu time spent up to now is       33.8 secs

     Computing kpt #:    99  of   256
     total cpu time spent up to now is       34.1 secs

     Computing kpt #:   100  of   256
     total cpu time spent up to now is       34.5 secs

     Computing kpt #:   101  of   256
     total cpu time spent up to now is       34.8 secs

     Computing kpt #:   102  of   256
     total cpu time spent up to now is       35.1 secs

     Computing kpt #:   103  of   256
     total cpu time spent up to now is       35.4 secs

     Computing kpt #:   104  of   256
     total cpu time spent up to now is       35.8 secs

     Computing kpt #:   105  of   256
     total cpu time spent up to now is       36.1 secs

     Computing kpt #:   106  of   256
     total cpu time spent up to now is       36.4 secs

     Computing kpt #:   107  of   256
     total cpu time spent up to now is       36.7 secs

     Computing kpt #:   108  of   256
     total cpu time spent up to now is       37.1 secs

     Computing kpt #:   109  of   256
     total cpu time spent up to now is       37.4 secs

     Computing kpt #:   110  of   256
     total cpu time spent up to now is       37.7 secs

     Computing kpt #:   111  of   256
     total cpu time spent up to now is       38.0 secs

     Computing kpt #:   112  of   256
     total cpu time spent up to now is       38.3 secs

     Computing kpt #:   113  of   256
     total cpu time spent up to now is       38.6 secs

     Computing kpt #:   114  of   256
     total cpu time spent up to now is       39.0 secs

     Computing kpt #:   115  of   256
     total cpu time spent up to now is       39.3 secs

     Computing kpt #:   116  of   256
     total cpu time spent up to now is       39.7 secs

     Computing kpt #:   117  of   256
     total cpu time spent up to now is       40.0 secs

     Computing kpt #:   118  of   256
     total cpu time spent up to now is       40.3 secs

     Computing kpt #:   119  of   256
     total cpu time spent up to now is       40.7 secs

     Computing kpt #:   120  of   256
     total cpu time spent up to now is       41.0 secs

     Computing kpt #:   121  of   256
     total cpu time spent up to now is       41.3 secs

     Computing kpt #:   122  of   256
     total cpu time spent up to now is       41.6 secs

     Computing kpt #:   123  of   256
     total cpu time spent up to now is       42.0 secs

     Computing kpt #:   124  of   256
     total cpu time spent up to now is       42.3 secs

     Computing kpt #:   125  of   256
     total cpu time spent up to now is       42.6 secs

     Computing kpt #:   126  of   256
     total cpu time spent up to now is       43.0 secs

     Computing kpt #:   127  of   256
     total cpu time spent up to now is       43.3 secs

     Computing kpt #:   128  of   256
     total cpu time spent up to now is       43.6 secs

     Computing kpt #:   129  of   256
     total cpu time spent up to now is       43.9 secs

     Computing kpt #:   130  of   256
     total cpu time spent up to now is       44.2 secs

     Computing kpt #:   131  of   256
     total cpu time spent up to now is       44.6 secs

     Computing kpt #:   132  of   256
     total cpu time spent up to now is       44.9 secs

     Computing kpt #:   133  of   256
     total cpu time spent up to now is       45.2 secs

     Computing kpt #:   134  of   256
     total cpu time spent up to now is       45.6 secs

     Computing kpt #:   135  of   256
     total cpu time spent up to now is       45.9 secs

     Computing kpt #:   136  of   256
     total cpu time spent up to now is       46.3 secs

     Computing kpt #:   137  of   256
     total cpu time spent up to now is       46.6 secs

     Computing kpt #:   138  of   256
     total cpu time spent up to now is       46.9 secs

     Computing kpt #:   139  of   256
     total cpu time spent up to now is       47.2 secs

     Computing kpt #:   140  of   256
     total cpu time spent up to now is       47.6 secs

     Computing kpt #:   141  of   256
     total cpu time spent up to now is       47.9 secs

     Computing kpt #:   142  of   256
     total cpu time spent up to now is       48.3 secs

     Computing kpt #:   143  of   256
     total cpu time spent up to now is       48.7 secs

     Computing kpt #:   144  of   256
     total cpu time spent up to now is       49.0 secs

     Computing kpt #:   145  of   256
     total cpu time spent up to now is       49.3 secs

     Computing kpt #:   146  of   256
     total cpu time spent up to now is       49.6 secs

     Computing kpt #:   147  of   256
     total cpu time spent up to now is       50.0 secs

     Computing kpt #:   148  of   256
     total cpu time spent up to now is       50.3 secs

     Computing kpt #:   149  of   256
     total cpu time spent up to now is       50.6 secs

     Computing kpt #:   150  of   256
     total cpu time spent up to now is       51.0 secs

     Computing kpt #:   151  of   256
     total cpu time spent up to now is       51.3 secs

     Computing kpt #:   152  of   256
     total cpu time spent up to now is       51.6 secs

     Computing kpt #:   153  of   256
     total cpu time spent up to now is       51.9 secs

     Computing kpt #:   154  of   256
     total cpu time spent up to now is       52.2 secs

     Computing kpt #:   155  of   256
     total cpu time spent up to now is       52.6 secs

     Computing kpt #:   156  of   256
     total cpu time spent up to now is       52.9 secs

     Computing kpt #:   157  of   256
     total cpu time spent up to now is       53.3 secs

     Computing kpt #:   158  of   256
     total cpu time spent up to now is       53.6 secs

     Computing kpt #:   159  of   256
     total cpu time spent up to now is       53.9 secs

     Computing kpt #:   160  of   256
     total cpu time spent up to now is       54.3 secs

     Computing kpt #:   161  of   256
     total cpu time spent up to now is       54.6 secs

     Computing kpt #:   162  of   256
     total cpu time spent up to now is       54.9 secs

     Computing kpt #:   163  of   256
     total cpu time spent up to now is       55.2 secs

     Computing kpt #:   164  of   256
     total cpu time spent up to now is       55.5 secs

     Computing kpt #:   165  of   256
     total cpu time spent up to now is       55.9 secs

     Computing kpt #:   166  of   256
     total cpu time spent up to now is       56.2 secs

     Computing kpt #:   167  of   256
     total cpu time spent up to now is       56.5 secs

     Computing kpt #:   168  of   256
     total cpu time spent up to now is       56.8 secs

     Computing kpt #:   169  of   256
     total cpu time spent up to now is       57.2 secs

     Computing kpt #:   170  of   256
     total cpu time spent up to now is       57.5 secs

     Computing kpt #:   171  of   256
     total cpu time spent up to now is       57.8 secs

     Computing kpt #:   172  of   256
     total cpu time spent up to now is       58.1 secs

     Computing kpt #:   173  of   256
     total cpu time spent up to now is       58.4 secs

     Computing kpt #:   174  of   256
     total cpu time spent up to now is       58.8 secs

     Computing kpt #:   175  of   256
     total cpu time spent up to now is       59.1 secs

     Computing kpt #:   176  of   256
     total cpu time spent up to now is       59.5 secs

     Computing kpt #:   177  of   256
     total cpu time spent up to now is       59.8 secs

     Computing kpt #:   178  of   256
     total cpu time spent up to now is       60.1 secs

     Computing kpt #:   179  of   256
     total cpu time spent up to now is       60.4 secs

     Computing kpt #:   180  of   256
     total cpu time spent up to now is       60.8 secs

     Computing kpt #:   181  of   256
     total cpu time spent up to now is       61.1 secs

     Computing kpt #:   182  of   256
     total cpu time spent up to now is       61.4 secs

     Computing kpt #:   183  of   256
     total cpu time spent up to now is       61.7 secs

     Computing kpt #:   184  of   256
     total cpu time spent up to now is       62.1 secs

     Computing kpt #:   185  of   256
     total cpu time spent up to now is       62.4 secs

     Computing kpt #:   186  of   256
     total cpu time spent up to now is       62.8 secs

     Computing kpt #:   187  of   256
     total cpu time spent up to now is       63.1 secs

     Computing kpt #:   188  of   256
     total cpu time spent up to now is       63.4 secs

     Computing kpt #:   189  of   256
     total cpu time spent up to now is       63.7 secs

     Computing kpt #:   190  of   256
     total cpu time spent up to now is       64.1 secs

     Computing kpt #:   191  of   256
     total cpu time spent up to now is       64.4 secs

     Computing kpt #:   192  of   256
     total cpu time spent up to now is       64.8 secs

     Computing kpt #:   193  of   256
     total cpu time spent up to now is       65.1 secs

     Computing kpt #:   194  of   256
     total cpu time spent up to now is       65.4 secs

     Computing kpt #:   195  of   256
     total cpu time spent up to now is       65.7 secs

     Computing kpt #:   196  of   256
     total cpu time spent up to now is       66.1 secs

     Computing kpt #:   197  of   256
     total cpu time spent up to now is       66.4 secs

     Computing kpt #:   198  of   256
     total cpu time spent up to now is       66.7 secs

     Computing kpt #:   199  of   256
     total cpu time spent up to now is       67.1 secs

     Computing kpt #:   200  of   256
     total cpu time spent up to now is       67.4 secs

     Computing kpt #:   201  of   256
     total cpu time spent up to now is       67.7 secs

     Computing kpt #:   202  of   256
     total cpu time spent up to now is       68.1 secs

     Computing kpt #:   203  of   256
     total cpu time spent up to now is       68.4 secs

     Computing kpt #:   204  of   256
     total cpu time spent up to now is       68.7 secs

     Computing kpt #:   205  of   256
     total cpu time spent up to now is       69.0 secs

     Computing kpt #:   206  of   256
     total cpu time spent up to now is       69.4 secs

     Computing kpt #:   207  of   256
     total cpu time spent up to now is       69.7 secs

     Computing kpt #:   208  of   256
     total cpu time spent up to now is       70.0 secs

     Computing kpt #:   209  of   256
     total cpu time spent up to now is       70.3 secs

     Computing kpt #:   210  of   256
     total cpu time spent up to now is       70.7 secs

     Computing kpt #:   211  of   256
     total cpu time spent up to now is       71.0 secs

     Computing kpt #:   212  of   256
     total cpu time spent up to now is       71.4 secs

     Computing kpt #:   213  of   256
     total cpu time spent up to now is       71.7 secs

     Computing kpt #:   214  of   256
     total cpu time spent up to now is       72.0 secs

     Computing kpt #:   215  of   256
     total cpu time spent up to now is       72.4 secs

     Computing kpt #:   216  of   256
     total cpu time spent up to now is       72.7 secs

     Computing kpt #:   217  of   256
     total cpu time spent up to now is       73.1 secs

     Computing kpt #:   218  of   256
     total cpu time spent up to now is       73.4 secs

     Computing kpt #:   219  of   256
     total cpu time spent up to now is       73.8 secs

     Computing kpt #:   220  of   256
     total cpu time spent up to now is       74.1 secs

     Computing kpt #:   221  of   256
     total cpu time spent up to now is       74.4 secs

     Computing kpt #:   222  of   256
     total cpu time spent up to now is       74.7 secs

     Computing kpt #:   223  of   256
     total cpu time spent up to now is       75.1 secs

     Computing kpt #:   224  of   256
     total cpu time spent up to now is       75.4 secs

     Computing kpt #:   225  of   256
     total cpu time spent up to now is       75.8 secs

     Computing kpt #:   226  of   256
     total cpu time spent up to now is       76.1 secs

     Computing kpt #:   227  of   256
     total cpu time spent up to now is       76.4 secs

     Computing kpt #:   228  of   256
     total cpu time spent up to now is       76.8 secs

     Computing kpt #:   229  of   256
     total cpu time spent up to now is       77.1 secs

     Computing kpt #:   230  of   256
     total cpu time spent up to now is       77.5 secs

     Computing kpt #:   231  of   256
     total cpu time spent up to now is       77.8 secs

     Computing kpt #:   232  of   256
     total cpu time spent up to now is       78.1 secs

     Computing kpt #:   233  of   256
     total cpu time spent up to now is       78.5 secs

     Computing kpt #:   234  of   256
     total cpu time spent up to now is       78.8 secs

     Computing kpt #:   235  of   256
     total cpu time spent up to now is       79.1 secs

     Computing kpt #:   236  of   256
     total cpu time spent up to now is       79.5 secs

     Computing kpt #:   237  of   256
     total cpu time spent up to now is       79.8 secs

     Computing kpt #:   238  of   256
     total cpu time spent up to now is       80.1 secs

     Computing kpt #:   239  of   256
     total cpu time spent up to now is       80.5 secs

     Computing kpt #:   240  of   256
     total cpu time spent up to now is       80.8 secs

     Computing kpt #:   241  of   256
     total cpu time spent up to now is       81.2 secs

     Computing kpt #:   242  of   256
     total cpu time spent up to now is       81.5 secs

     Computing kpt #:   243  of   256
     total cpu time spent up to now is       81.8 secs

     Computing kpt #:   244  of   256
     total cpu time spent up to now is       82.2 secs

     Computing kpt #:   245  of   256
     total cpu time spent up to now is       82.5 secs

     Computing kpt #:   246  of   256
     total cpu time spent up to now is       82.9 secs

     Computing kpt #:   247  of   256
     total cpu time spent up to now is       83.2 secs

     Computing kpt #:   248  of   256
     total cpu time spent up to now is       83.5 secs

     Computing kpt #:   249  of   256
     total cpu time spent up to now is       83.8 secs

     Computing kpt #:   250  of   256
     total cpu time spent up to now is       84.2 secs

     Computing kpt #:   251  of   256
     total cpu time spent up to now is       84.5 secs

     Computing kpt #:   252  of   256
     total cpu time spent up to now is       84.8 secs

     Computing kpt #:   253  of   256
     total cpu time spent up to now is       85.1 secs

     Computing kpt #:   254  of   256
     total cpu time spent up to now is       85.5 secs

     Computing kpt #:   255  of   256
     total cpu time spent up to now is       85.8 secs

     Computing kpt #:   256  of   256
     total cpu time spent up to now is       86.2 secs

     ethr =  3.12E-09,  avg # of iterations = 33.3

     total cpu time spent up to now is       86.2 secs

     End of band structure calculation

          k = 0.0000 0.0000 0.0000 ( 48107 PWs)   bands (ev):

  -104.6355 -65.0296 -65.0282 -65.0282 -15.7534 -14.8306  -6.7391  -4.8356
    -4.8356  -3.7411  -3.2561  -3.2561  -3.0002  -2.8300  -2.8300  -1.3061
    -1.3061   1.8451   2.5769   2.7242

     occupation numbers
     1.0000   1.0000   1.0000   1.0000   1.0000   1.0000   1.0000   1.0000
     1.0000   1.0000   1.0000   1.0000   1.0000   1.0000   1.0000   0.0000
     0.0000   0.0000   0.0000   0.0000

          k = 0.0000 0.0722 0.0000 ( 48113 PWs)   bands (ev):

  -104.6355 -65.0296 -65.0282 -65.0282 -15.7234 -14.8136  -6.7085  -4.9369
    -4.8340  -3.6706  -3.4232  -3.3451  -3.1219  -2.7887  -2.7648  -1.4620
    -1.3350   1.9860   2.7586   2.8168

     occupation numbers
     1.0000   1.0000   1.0000   1.0000   1.0000   1.0000   1.0000   1.0000
     1.0000   1.0000   1.0000   1.0000   1.0000   1.0000   1.0000   0.0000
     0.0000   0.0000   0.0000   0.0000

          k = 0.0000 0.1443 0.0000 ( 48142 PWs)   bands (ev):

  -104.6355 -65.0296 -65.0282 -65.0282 -15.6353 -14.7651  -6.6228  -5.1842
    -4.8297  -3.9650  -3.5392  -3.5357  -3.1706  -2.7388  -2.7306  -1.7951
    -1.4023   2.3079   2.8665   3.0854

     occupation numbers
     1.0000   1.0000   1.0000   1.0000   1.0000   1.0000   1.0000   1.0000
     1.0000   1.0000   1.0000   1.0000   1.0000   1.0000   1.0000   1.0446
     0.0000   0.0000   0.0000   0.0000

          k = 0.0000 0.2165 0.0000 ( 48158 PWs)   bands (ev):

  -104.6355 -65.0296 -65.0283 -65.0282 -15.4954 -14.6922  -6.5068  -5.5133
    -4.8237  -4.6000  -3.7534  -3.5046  -3.1977  -2.7424  -2.7359  -2.0527
    -1.4691   2.6074   2.7174   3.0645

     occupation numbers
     1.0000   1.0000   1.0000   1.0000   1.0000   1.0000   1.0000   1.0000
     1.0000   1.0000   1.0000   1.0000   1.0000   1.0000   1.0000   1.0000
     0.0000   0.0000   0.0000   0.0000

          k = 0.0000 0.2887 0.0000 ( 48148 PWs)   bands (ev):

  -104.6355 -65.0296 -65.0284 -65.0282 -15.3152 -14.6074  -6.4462  -5.8909
    -5.0979  -4.8171  -3.9648  -3.6688  -3.2224  -2.8013  -2.7668  -2.0783
    -1.5103   2.1338   2.9950   3.2864

     occupation numbers
     1.0000   1.0000   1.0000   1.0000   1.0000   1.0000   1.0000   1.0000
     1.0000   1.0000   1.0000   1.0000   1.0000   1.0000   1.0000   1.0000
     0.0000   0.0000   0.0000   0.0000

          k = 0.0000 0.3608 0.0000 ( 48214 PWs)   bands (ev):

  -104.6355 -65.0296 -65.0285 -65.0283 -15.1120 -14.5278  -6.6679  -6.1667
    -5.2815  -4.8106  -4.1497  -3.9464  -3.2446  -2.8871  -2.8136  -1.9535
    -1.5264   1.6759   3.1443   3.5522

     occupation numbers
     1.0000   1.0000   1.0000   1.0000   1.0000   1.0000   1.0000   1.0000
     1.0000   1.0000   1.0000   1.0000   1.0000   1.0000   1.0000   1.0000
     0.0000   0.0000   0.0000   0.0000

          k = 0.0000 0.4330 0.0000 ( 48212 PWs)   bands (ev):

  -104.6355 -65.0295 -65.0286 -65.0283 -14.9102 -14.4735  -7.0644  -6.3513
    -5.1782  -4.8042  -4.2944  -4.2206  -3.2633  -2.9685  -2.8784  -1.8074
    -1.5290   1.3321   3.1368   3.5956

     occupation numbers
     1.0000   1.0000   1.0000   1.0000   1.0000   1.0000   1.0000   1.0000
     1.0000   1.0000   1.0000   1.0000   1.0000   1.0000   1.0000   1.0701
     0.0000   0.0000   0.0000   0.0000

          k = 0.0000 0.5052 0.0000 ( 48214 PWs)   bands (ev):

  -104.6355 -65.0295 -65.0287 -65.0283 -14.7435 -14.4595  -7.3601  -6.4938
    -4.9668  -4.7984  -4.4543  -4.3877  -3.2771  -3.0241  -2.9437  -1.7065
    -1.5273   1.1291   3.0618   3.6447

     occupation numbers
     1.0000   1.0000   1.0000   1.0000   1.0000   1.0000   1.0000   1.0000
     1.0000   1.0000   1.0000   1.0000   1.0000   1.0000   1.0000   0.0000
     0.0000   0.0000   0.0000   0.0000

          k = 0.0000-0.5774 0.0000 ( 48254 PWs)   bands (ev):

  -104.6355 -65.0295 -65.0287 -65.0283 -14.6686 -14.4688  -7.4661  -6.5471
    -4.8128  -4.7959  -4.6012  -4.4203  -3.2826  -3.0436  -2.9725  -1.6720
    -1.5263   1.0640   3.0220   3.8179

     occupation numbers
     1.0000   1.0000   1.0000   1.0000   1.0000   1.0000   1.0000   1.0000
     1.0000   1.0000   1.0000   1.0000   1.0000   1.0000   1.0000   0.0000
     0.0000   0.0000   0.0000   0.0000

          k = 0.0000-0.5052 0.0000 ( 48214 PWs)   bands (ev):

  -104.6355 -65.0295 -65.0287 -65.0283 -14.7435 -14.4595  -7.3601  -6.4938
    -4.9668  -4.7984  -4.4543  -4.3877  -3.2771  -3.0241  -2.9437  -1.7065
    -1.5273   1.1291   3.0618   3.6447

     occupation numbers
     1.0000   1.0000   1.0000   1.0000   1.0000   1.0000   1.0000   1.0000
     1.0000   1.0000   1.0000   1.0000   1.0000   1.0000   1.0000   0.0000
     0.0000   0.0000   0.0000   0.0000

          k = 0.0000-0.4330 0.0000 ( 48212 PWs)   bands (ev):

  -104.6355 -65.0295 -65.0286 -65.0283 -14.9102 -14.4735  -7.0644  -6.3513
    -5.1782  -4.8042  -4.2944  -4.2206  -3.2633  -2.9685  -2.8784  -1.8074
    -1.5290   1.3321   3.1368   3.5956

     occupation numbers
     1.0000   1.0000   1.0000   1.0000   1.0000   1.0000   1.0000   1.0000
     1.0000   1.0000   1.0000   1.0000   1.0000   1.0000   1.0000   1.0701
     0.0000   0.0000   0.0000   0.0000

          k = 0.0000-0.3608 0.0000 ( 48214 PWs)   bands (ev):

  -104.6355 -65.0296 -65.0285 -65.0283 -15.1120 -14.5278  -6.6679  -6.1667
    -5.2815  -4.8106  -4.1497  -3.9464  -3.2446  -2.8871  -2.8136  -1.9535
    -1.5264   1.6759   3.1443   3.5522

     occupation numbers
     1.0000   1.0000   1.0000   1.0000   1.0000   1.0000   1.0000   1.0000
     1.0000   1.0000   1.0000   1.0000   1.0000   1.0000   1.0000   1.0000
     0.0000   0.0000   0.0000   0.0000

          k = 0.0000-0.2887 0.0000 ( 48148 PWs)   bands (ev):

  -104.6355 -65.0296 -65.0284 -65.0282 -15.3152 -14.6074  -6.4462  -5.8909
    -5.0979  -4.8171  -3.9648  -3.6688  -3.2224  -2.8013  -2.7668  -2.0783
    -1.5103   2.1338   2.9950   3.2864

     occupation numbers
     1.0000   1.0000   1.0000   1.0000   1.0000   1.0000   1.0000   1.0000
     1.0000   1.0000   1.0000   1.0000   1.0000   1.0000   1.0000   1.0000
     0.0000   0.0000   0.0000   0.0000

          k = 0.0000-0.2165 0.0000 ( 48158 PWs)   bands (ev):

  -104.6355 -65.0296 -65.0283 -65.0282 -15.4954 -14.6922  -6.5068  -5.5133
    -4.8237  -4.6000  -3.7534  -3.5046  -3.1977  -2.7424  -2.7359  -2.0527
    -1.4691   2.6074   2.7174   3.0645

     occupation numbers
     1.0000   1.0000   1.0000   1.0000   1.0000   1.0000   1.0000   1.0000
     1.0000   1.0000   1.0000   1.0000   1.0000   1.0000   1.0000   1.0000
     0.0000   0.0000   0.0000   0.0000

          k = 0.0000-0.1443 0.0000 ( 48142 PWs)   bands (ev):

  -104.6355 -65.0296 -65.0282 -65.0282 -15.6353 -14.7651  -6.6228  -5.1842
    -4.8297  -3.9650  -3.5392  -3.5357  -3.1706  -2.7388  -2.7306  -1.7951
    -1.4023   2.3079   2.8665   3.0854

     occupation numbers
     1.0000   1.0000   1.0000   1.0000   1.0000   1.0000   1.0000   1.0000
     1.0000   1.0000   1.0000   1.0000   1.0000   1.0000   1.0000   1.0446
     0.0000   0.0000   0.0000   0.0000

          k = 0.0000-0.0722 0.0000 ( 48113 PWs)   bands (ev):

  -104.6355 -65.0296 -65.0282 -65.0282 -15.7234 -14.8136  -6.7085  -4.9369
    -4.8340  -3.6706  -3.4232  -3.3451  -3.1219  -2.7887  -2.7648  -1.4620
    -1.3350   1.9860   2.7586   2.8168

     occupation numbers
     1.0000   1.0000   1.0000   1.0000   1.0000   1.0000   1.0000   1.0000
     1.0000   1.0000   1.0000   1.0000   1.0000   1.0000   1.0000   0.0000
     0.0000   0.0000   0.0000   0.0000

          k = 0.0625 0.0361 0.0000 ( 48113 PWs)   bands (ev):

  -104.6355 -65.0296 -65.0282 -65.0282 -15.7234 -14.8136  -6.7085  -4.9369
    -4.8340  -3.6706  -3.4232  -3.3451  -3.1219  -2.7887  -2.7648  -1.4620
    -1.3350   1.9860   2.7586   2.8168

     occupation numbers
     1.0000   1.0000   1.0000   1.0000   1.0000   1.0000   1.0000   1.0000
     1.0000   1.0000   1.0000   1.0000   1.0000   1.0000   1.0000   0.0000
     0.0000   0.0000   0.0000   0.0000

          k = 0.0625 0.1083 0.0000 ( 48119 PWs)   bands (ev):

  -104.6355 -65.0296 -65.0282 -65.0282 -15.6643 -14.7808  -6.6503  -5.1051
    -4.8345  -3.7749  -3.5745  -3.5183  -3.1490  -2.7489  -2.7353  -1.6703
    -1.4159   2.2157   2.8347   3.1889

     occupation numbers
     1.0000   1.0000   1.0000   1.0000   1.0000   1.0000   1.0000   1.0000
     1.0000   1.0000   1.0000   1.0000   1.0000   1.0000   1.0000   0.0000
     0.0000   0.0000   0.0000   0.0000

          k = 0.0625 0.1804 0.0000 ( 48136 PWs)   bands (ev):

  -104.6355 -65.0296 -65.0283 -65.0282 -15.5503 -14.7200  -6.5477  -5.3759
    -4.8391  -4.3487  -3.7512  -3.4905  -3.1628  -2.7385  -2.7289  -1.9120
    -1.5309   2.5505   2.9466   3.0776

     occupation numbers
     1.0000   1.0000   1.0000   1.0000   1.0000   1.0000   1.0000   1.0000
     1.0000   1.0000   1.0000   1.0000   1.0000   1.0000   1.0000   1.0000
     0.0000   0.0000   0.0000   0.0000

          k = 0.0625 0.2526 0.0000 ( 48148 PWs)   bands (ev):

  -104.6355 -65.0296 -65.0284 -65.0282 -15.3900 -14.6408  -6.4472  -5.7121
    -4.9166  -4.8457  -3.9763  -3.5653  -3.1795  -2.7675  -2.7527  -2.0416
    -1.5967   2.5248   2.9206   3.1785

     occupation numbers
     1.0000   1.0000   1.0000   1.0000   1.0000   1.0000   1.0000   1.0000
     1.0000   1.0000   1.0000   1.0000   1.0000   1.0000   1.0000   1.0000
     0.0000   0.0000   0.0000   0.0000

          k = 0.0625 0.3248 0.0000 ( 48173 PWs)   bands (ev):

  -104.6355 -65.0296 -65.0285 -65.0283 -15.1978 -14.5579  -6.5041  -6.0481
    -5.2476  -4.8561  -4.1803  -3.8043  -3.1944  -2.8397  -2.7876  -2.0055
    -1.6117   2.0399   3.1762   3.4461

     occupation numbers
     1.0000   1.0000   1.0000   1.0000   1.0000   1.0000   1.0000   1.0000
     1.0000   1.0000   1.0000   1.0000   1.0000   1.0000   1.0000   1.0000
     0.0000   0.0000   0.0000   0.0000

          k = 0.0625 0.3969 0.0000 ( 48195 PWs)   bands (ev):

  -104.6355 -65.0295 -65.0286 -65.0283 -14.9942 -14.4900  -6.8510  -6.2573
    -5.2545  -4.8602  -4.3590  -4.0850  -3.2049  -2.9318  -2.8373  -1.8893
    -1.6030   1.6318   3.2715   3.6878

     occupation numbers
     1.0000   1.0000   1.0000   1.0000   1.0000   1.0000   1.0000   1.0000
     1.0000   1.0000   1.0000   1.0000   1.0000   1.0000   1.0000   1.0000
[...]
     1.0000   1.0000   1.0000   1.0000   1.0000   1.0000   1.0000   1.0000
     0.0653   0.0000   0.0000   0.0000

          k =-0.1875-0.4691 0.0000 ( 48158 PWs)   bands (ev):

  -104.6355 -65.0295 -65.0286 -65.0284 -14.7183 -14.4252  -7.0410  -6.3558
    -5.5239  -4.9456  -4.9239  -4.3906  -3.0656  -3.0159  -2.8381  -2.0652
    -1.7141   2.0162   3.5843   4.4588

     occupation numbers
     1.0000   1.0000   1.0000   1.0000   1.0000   1.0000   1.0000   1.0000
     1.0000   1.0000   1.0000   1.0000   1.0000   1.0000   1.0000   1.0000
     0.0000   0.0000   0.0000   0.0000

          k =-0.1875-0.3969 0.0000 ( 48173 PWs)   bands (ev):

  -104.6355 -65.0295 -65.0286 -65.0283 -14.8847 -14.4510  -6.7798  -6.2735
    -5.4280  -5.0675  -4.7625  -4.1648  -3.0823  -2.9651  -2.7962  -2.1063
    -1.7103   2.2693   3.3490   4.1727

     occupation numbers
     1.0000   1.0000   1.0000   1.0000   1.0000   1.0000   1.0000   1.0000
     1.0000   1.0000   1.0000   1.0000   1.0000   1.0000   1.0000   1.0000
     0.0000   0.0000   0.0000   0.0000

          k =-0.1875-0.3248 0.0000 ( 48145 PWs)   bands (ev):

  -104.6355 -65.0296 -65.0285 -65.0283 -15.0679 -14.5060  -6.5363  -6.1119
    -5.3644  -5.0460  -4.5520  -3.9163  -3.1156  -2.8745  -2.7735  -2.0644
    -1.7679   2.5137   3.2410   3.7177

     occupation numbers
     1.0000   1.0000   1.0000   1.0000   1.0000   1.0000   1.0000   1.0000
     1.0000   1.0000   1.0000   1.0000   1.0000   1.0000   1.0000   1.0000
     0.2247   0.0000   0.0000   0.0000

          k =-0.1875-0.2526 0.0000 ( 48141 PWs)   bands (ev):

  -104.6355 -65.0296 -65.0285 -65.0283 -15.2429 -14.5745  -6.4284  -5.9140
    -5.2060  -4.9318  -4.2876  -3.7024  -3.1448  -2.8013  -2.7700  -1.9696
    -1.7963   2.5664   3.2109   3.3146

     occupation numbers
     1.0000   1.0000   1.0000   1.0000   1.0000   1.0000   1.0000   1.0000
     1.0000   1.0000   1.0000   1.0000   1.0000   1.0000   1.0000   1.0000
     1.0583   0.0000   0.0000   0.0000

          k =-0.1875-0.1804 0.0000 ( 48148 PWs)   bands (ev):

  -104.6355 -65.0296 -65.0284 -65.0282 -15.3900 -14.6408  -6.4472  -5.7121
    -4.9166  -4.8457  -3.9763  -3.5653  -3.1795  -2.7675  -2.7527  -2.0416
    -1.5967   2.5248   2.9206   3.1785

     occupation numbers
     1.0000   1.0000   1.0000   1.0000   1.0000   1.0000   1.0000   1.0000
     1.0000   1.0000   1.0000   1.0000   1.0000   1.0000   1.0000   1.0000
     0.0000   0.0000   0.0000   0.0000

          k =-0.1250-0.0722 0.0000 ( 48142 PWs)   bands (ev):

  -104.6355 -65.0296 -65.0282 -65.0282 -15.6353 -14.7651  -6.6228  -5.1842
    -4.8297  -3.9650  -3.5392  -3.5357  -3.1706  -2.7388  -2.7306  -1.7951
    -1.4023   2.3079   2.8665   3.0854

     occupation numbers
     1.0000   1.0000   1.0000   1.0000   1.0000   1.0000   1.0000   1.0000
     1.0000   1.0000   1.0000   1.0000   1.0000   1.0000   1.0000   1.0446
     0.0000   0.0000   0.0000   0.0000

          k =-0.1250 0.0000 0.0000 ( 48119 PWs)   bands (ev):

  -104.6355 -65.0296 -65.0282 -65.0282 -15.6643 -14.7808  -6.6503  -5.1051
    -4.8345  -3.7749  -3.5745  -3.5183  -3.1490  -2.7489  -2.7353  -1.6703
    -1.4159   2.2157   2.8347   3.1889

     occupation numbers
     1.0000   1.0000   1.0000   1.0000   1.0000   1.0000   1.0000   1.0000
     1.0000   1.0000   1.0000   1.0000   1.0000   1.0000   1.0000   0.0000
     0.0000   0.0000   0.0000   0.0000

          k =-0.1250 0.0722 0.0000 ( 48142 PWs)   bands (ev):

  -104.6355 -65.0296 -65.0282 -65.0282 -15.6353 -14.7651  -6.6228  -5.1842
    -4.8297  -3.9650  -3.5392  -3.5357  -3.1706  -2.7388  -2.7306  -1.7951
    -1.4023   2.3079   2.8665   3.0854

     occupation numbers
     1.0000   1.0000   1.0000   1.0000   1.0000   1.0000   1.0000   1.0000
     1.0000   1.0000   1.0000   1.0000   1.0000   1.0000   1.0000   1.0446
     0.0000   0.0000   0.0000   0.0000

          k =-0.1250 0.1443 0.0000 ( 48136 PWs)   bands (ev):

  -104.6355 -65.0296 -65.0283 -65.0282 -15.5503 -14.7200  -6.5477  -5.3759
    -4.8391  -4.3487  -3.7512  -3.4905  -3.1628  -2.7385  -2.7289  -1.9120
    -1.5309   2.5505   2.9466   3.0776

     occupation numbers
     1.0000   1.0000   1.0000   1.0000   1.0000   1.0000   1.0000   1.0000
     1.0000   1.0000   1.0000   1.0000   1.0000   1.0000   1.0000   1.0000
     0.0000   0.0000   0.0000   0.0000

          k =-0.1250 0.2165 0.0000 ( 48125 PWs)   bands (ev):

  -104.6355 -65.0296 -65.0284 -65.0282 -15.4157 -14.6526  -6.4539  -5.6268
    -4.8760  -4.8184  -4.0388  -3.5249  -3.1500  -2.7579  -2.7471  -1.9135
    -1.7542   2.8417   2.9777   3.0932

     occupation numbers
     1.0000   1.0000   1.0000   1.0000   1.0000   1.0000   1.0000   1.0000
     1.0000   1.0000   1.0000   1.0000   1.0000   1.0000   1.0000   1.0000
     0.0316   0.0000   0.0000   0.0000

          k =-0.1250 0.2887 0.0000 ( 48141 PWs)   bands (ev):

  -104.6355 -65.0296 -65.0285 -65.0283 -15.2429 -14.5745  -6.4284  -5.9140
    -5.2060  -4.9318  -4.2876  -3.7024  -3.1448  -2.8013  -2.7700  -1.9696
    -1.7963   2.5664   3.2109   3.3146

     occupation numbers
     1.0000   1.0000   1.0000   1.0000   1.0000   1.0000   1.0000   1.0000
     1.0000   1.0000   1.0000   1.0000   1.0000   1.0000   1.0000   1.0000
     1.0583   0.0000   0.0000   0.0000

          k =-0.1250 0.3608 0.0000 ( 48162 PWs)   bands (ev):

  -104.6355 -65.0296 -65.0285 -65.0283 -15.0489 -14.5018  -6.6338  -6.1642
    -5.3147  -4.9864  -4.4957  -3.9669  -3.1368  -2.8928  -2.7954  -1.9981
    -1.7237   2.1555   3.3541   3.7158

     occupation numbers
     1.0000   1.0000   1.0000   1.0000   1.0000   1.0000   1.0000   1.0000
     1.0000   1.0000   1.0000   1.0000   1.0000   1.0000   1.0000   1.0000
     0.0000   0.0000   0.0000   0.0000

          k =-0.1250 0.4330 0.0000 ( 48177 PWs)   bands (ev):

  -104.6355 -65.0295 -65.0286 -65.0283 -14.8575 -14.4527  -6.9845  -6.3275
    -5.2331  -4.9894  -4.6786  -4.2276  -3.1236  -2.9838  -2.8423  -1.9459
    -1.6786   1.8103   3.4955   4.0045

     occupation numbers
     1.0000   1.0000   1.0000   1.0000   1.0000   1.0000   1.0000   1.0000
     1.0000   1.0000   1.0000   1.0000   1.0000   1.0000   1.0000   1.0000
     0.0000   0.0000   0.0000   0.0000

          k =-0.1250-0.6495 0.0000 ( 48212 PWs)   bands (ev):

  -104.6355 -65.0295 -65.0287 -65.0283 -14.6999 -14.4411  -7.2545  -6.4324
    -5.1737  -4.8895  -4.7994  -4.4482  -3.1261  -3.0206  -2.8998  -1.8676
    -1.6849   1.5947   3.6454   4.0684

     occupation numbers
     1.0000   1.0000   1.0000   1.0000   1.0000   1.0000   1.0000   1.0000
     1.0000   1.0000   1.0000   1.0000   1.0000   1.0000   1.0000   1.0000
     0.0000   0.0000   0.0000   0.0000

          k =-0.1250-0.5774 0.0000 ( 48240 PWs)   bands (ev):

  -104.6355 -65.0295 -65.0287 -65.0283 -14.6287 -14.4511  -7.3525  -6.4694
    -5.1588  -4.9096  -4.6600  -4.6361  -3.1391  -3.0083  -2.9361  -1.8173
    -1.7111   1.5236   3.7175   4.1479

     occupation numbers
     1.0000   1.0000   1.0000   1.0000   1.0000   1.0000   1.0000   1.0000
     1.0000   1.0000   1.0000   1.0000   1.0000   1.0000   1.0000   1.0270
     0.0000   0.0000   0.0000   0.0000

          k =-0.1250-0.5052 0.0000 ( 48212 PWs)   bands (ev):

  -104.6355 -65.0295 -65.0287 -65.0283 -14.6999 -14.4411  -7.2545  -6.4324
    -5.1737  -4.8895  -4.7994  -4.4482  -3.1261  -3.0206  -2.8998  -1.8676
    -1.6849   1.5947   3.6454   4.0684

     occupation numbers
     1.0000   1.0000   1.0000   1.0000   1.0000   1.0000   1.0000   1.0000
     1.0000   1.0000   1.0000   1.0000   1.0000   1.0000   1.0000   1.0000
     0.0000   0.0000   0.0000   0.0000

          k =-0.1250-0.4330 0.0000 ( 48177 PWs)   bands (ev):

  -104.6355 -65.0295 -65.0286 -65.0283 -14.8575 -14.4527  -6.9845  -6.3275
    -5.2331  -4.9894  -4.6786  -4.2276  -3.1236  -2.9838  -2.8423  -1.9459
    -1.6786   1.8103   3.4955   4.0045

     occupation numbers
     1.0000   1.0000   1.0000   1.0000   1.0000   1.0000   1.0000   1.0000
     1.0000   1.0000   1.0000   1.0000   1.0000   1.0000   1.0000   1.0000
     0.0000   0.0000   0.0000   0.0000

          k =-0.1250-0.3608 0.0000 ( 48162 PWs)   bands (ev):

  -104.6355 -65.0296 -65.0285 -65.0283 -15.0489 -14.5018  -6.6338  -6.1642
    -5.3147  -4.9864  -4.4957  -3.9669  -3.1368  -2.8928  -2.7954  -1.9981
    -1.7237   2.1555   3.3541   3.7158

     occupation numbers
     1.0000   1.0000   1.0000   1.0000   1.0000   1.0000   1.0000   1.0000
     1.0000   1.0000   1.0000   1.0000   1.0000   1.0000   1.0000   1.0000
     0.0000   0.0000   0.0000   0.0000

          k =-0.1250-0.2887 0.0000 ( 48141 PWs)   bands (ev):

  -104.6355 -65.0296 -65.0285 -65.0283 -15.2429 -14.5745  -6.4284  -5.9140
    -5.2060  -4.9318  -4.2876  -3.7024  -3.1448  -2.8013  -2.7700  -1.9696
    -1.7963   2.5664   3.2109   3.3146

     occupation numbers
     1.0000   1.0000   1.0000   1.0000   1.0000   1.0000   1.0000   1.0000
     1.0000   1.0000   1.0000   1.0000   1.0000   1.0000   1.0000   1.0000
     1.0583   0.0000   0.0000   0.0000

          k =-0.1250-0.2165 0.0000 ( 48125 PWs)   bands (ev):

  -104.6355 -65.0296 -65.0284 -65.0282 -15.4157 -14.6526  -6.4539  -5.6268
    -4.8760  -4.8184  -4.0388  -3.5249  -3.1500  -2.7579  -2.7471  -1.9135
    -1.7542   2.8417   2.9777   3.0932

     occupation numbers
     1.0000   1.0000   1.0000   1.0000   1.0000   1.0000   1.0000   1.0000
     1.0000   1.0000   1.0000   1.0000   1.0000   1.0000   1.0000   1.0000
     0.0316   0.0000   0.0000   0.0000

          k =-0.1250-0.1443 0.0000 ( 48136 PWs)   bands (ev):

  -104.6355 -65.0296 -65.0283 -65.0282 -15.5503 -14.7200  -6.5477  -5.3759
    -4.8391  -4.3487  -3.7512  -3.4905  -3.1628  -2.7385  -2.7289  -1.9120
    -1.5309   2.5505   2.9466   3.0776

     occupation numbers
     1.0000   1.0000   1.0000   1.0000   1.0000   1.0000   1.0000   1.0000
     1.0000   1.0000   1.0000   1.0000   1.0000   1.0000   1.0000   1.0000
     0.0000   0.0000   0.0000   0.0000

          k =-0.0625-0.0361 0.0000 ( 48113 PWs)   bands (ev):

  -104.6355 -65.0296 -65.0282 -65.0282 -15.7234 -14.8136  -6.7085  -4.9369
    -4.8340  -3.6706  -3.4232  -3.3451  -3.1219  -2.7887  -2.7648  -1.4620
    -1.3350   1.9860   2.7586   2.8168

     occupation numbers
     1.0000   1.0000   1.0000   1.0000   1.0000   1.0000   1.0000   1.0000
     1.0000   1.0000   1.0000   1.0000   1.0000   1.0000   1.0000   0.0000
     0.0000   0.0000   0.0000   0.0000

          k =-0.0625 0.0361 0.0000 ( 48113 PWs)   bands (ev):

  -104.6355 -65.0296 -65.0282 -65.0282 -15.7234 -14.8136  -6.7085  -4.9369
    -4.8340  -3.6706  -3.4232  -3.3451  -3.1219  -2.7887  -2.7648  -1.4620
    -1.3350   1.9860   2.7586   2.8168

     occupation numbers
     1.0000   1.0000   1.0000   1.0000   1.0000   1.0000   1.0000   1.0000
     1.0000   1.0000   1.0000   1.0000   1.0000   1.0000   1.0000   0.0000
     0.0000   0.0000   0.0000   0.0000

          k =-0.0625 0.1083 0.0000 ( 48119 PWs)   bands (ev):

  -104.6355 -65.0296 -65.0282 -65.0282 -15.6643 -14.7808  -6.6503  -5.1051
    -4.8345  -3.7749  -3.5745  -3.5183  -3.1490  -2.7489  -2.7353  -1.6703
    -1.4159   2.2157   2.8347   3.1889

     occupation numbers
     1.0000   1.0000   1.0000   1.0000   1.0000   1.0000   1.0000   1.0000
     1.0000   1.0000   1.0000   1.0000   1.0000   1.0000   1.0000   0.0000
     0.0000   0.0000   0.0000   0.0000

          k =-0.0625 0.1804 0.0000 ( 48136 PWs)   bands (ev):

  -104.6355 -65.0296 -65.0283 -65.0282 -15.5503 -14.7200  -6.5477  -5.3759
    -4.8391  -4.3487  -3.7512  -3.4905  -3.1628  -2.7385  -2.7289  -1.9120
    -1.5309   2.5505   2.9466   3.0776

     occupation numbers
     1.0000   1.0000   1.0000   1.0000   1.0000   1.0000   1.0000   1.0000
     1.0000   1.0000   1.0000   1.0000   1.0000   1.0000   1.0000   1.0000
     0.0000   0.0000   0.0000   0.0000

          k =-0.0625 0.2526 0.0000 ( 48148 PWs)   bands (ev):

  -104.6355 -65.0296 -65.0284 -65.0282 -15.3900 -14.6408  -6.4472  -5.7121
    -4.9166  -4.8457  -3.9763  -3.5653  -3.1795  -2.7675  -2.7527  -2.0416
    -1.5967   2.5248   2.9206   3.1785

     occupation numbers
     1.0000   1.0000   1.0000   1.0000   1.0000   1.0000   1.0000   1.0000
     1.0000   1.0000   1.0000   1.0000   1.0000   1.0000   1.0000   1.0000
     0.0000   0.0000   0.0000   0.0000

          k =-0.0625 0.3248 0.0000 ( 48173 PWs)   bands (ev):

  -104.6355 -65.0296 -65.0285 -65.0283 -15.1978 -14.5579  -6.5041  -6.0481
    -5.2476  -4.8561  -4.1803  -3.8043  -3.1944  -2.8397  -2.7876  -2.0055
    -1.6117   2.0399   3.1762   3.4461

     occupation numbers
     1.0000   1.0000   1.0000   1.0000   1.0000   1.0000   1.0000   1.0000
     1.0000   1.0000   1.0000   1.0000   1.0000   1.0000   1.0000   1.0000
     0.0000   0.0000   0.0000   0.0000

          k =-0.0625 0.3969 0.0000 ( 48195 PWs)   bands (ev):

  -104.6355 -65.0295 -65.0286 -65.0283 -14.9942 -14.4900  -6.8510  -6.2573
    -5.2545  -4.8602  -4.3590  -4.0850  -3.2049  -2.9318  -2.8373  -1.8893
    -1.6030   1.6318   3.2715   3.6878

     occupation numbers
     1.0000   1.0000   1.0000   1.0000   1.0000   1.0000   1.0000   1.0000
     1.0000   1.0000   1.0000   1.0000   1.0000   1.0000   1.0000   1.0000
     0.0000   0.0000   0.0000   0.0000

          k =-0.0625 0.4691 0.0000 ( 48179 PWs)   bands (ev):

  -104.6355 -65.0295 -65.0286 -65.0283 -14.8075 -14.4559  -7.2077  -6.4189
    -5.0826  -4.8486  -4.5122  -4.3257  -3.2124  -3.0037  -2.9015  -1.7751
    -1.5975   1.3514   3.2782   3.6977

     occupation numbers
     1.0000   1.0000   1.0000   1.0000   1.0000   1.0000   1.0000   1.0000
     1.0000   1.0000   1.0000   1.0000   1.0000   1.0000   1.0000   0.4473
     0.0000   0.0000   0.0000   0.0000

          k =-0.0625-0.6134 0.0000 ( 48239 PWs)   bands (ev):

  -104.6355 -65.0295 -65.0287 -65.0283 -14.6786 -14.4599  -7.4108  -6.5144
    -4.9013  -4.8244  -4.6068  -4.5085  -3.2200  -3.0329  -2.9555  -1.6955
    -1.6121   1.2147   3.2440   3.8065

     occupation numbers
     1.0000   1.0000   1.0000   1.0000   1.0000   1.0000   1.0000   1.0000
     1.0000   1.0000   1.0000   1.0000   1.0000   1.0000   1.0000   0.0000
     0.0000   0.0000   0.0000   0.0000

          k =-0.0625-0.5413 0.0000 ( 48239 PWs)   bands (ev):

  -104.6355 -65.0295 -65.0287 -65.0283 -14.6786 -14.4599  -7.4108  -6.5144
    -4.9013  -4.8244  -4.6068  -4.5085  -3.2200  -3.0329  -2.9555  -1.6955
    -1.6121   1.2147   3.2440   3.8065

     occupation numbers
     1.0000   1.0000   1.0000   1.0000   1.0000   1.0000   1.0000   1.0000
     1.0000   1.0000   1.0000   1.0000   1.0000   1.0000   1.0000   0.0000
     0.0000   0.0000   0.0000   0.0000

          k =-0.0625-0.4691 0.0000 ( 48179 PWs)   bands (ev):

  -104.6355 -65.0295 -65.0286 -65.0283 -14.8075 -14.4559  -7.2077  -6.4189
    -5.0826  -4.8486  -4.5122  -4.3257  -3.2124  -3.0037  -2.9015  -1.7751
    -1.5975   1.3514   3.2782   3.6977

     occupation numbers
     1.0000   1.0000   1.0000   1.0000   1.0000   1.0000   1.0000   1.0000
     1.0000   1.0000   1.0000   1.0000   1.0000   1.0000   1.0000   0.4473
     0.0000   0.0000   0.0000   0.0000

          k =-0.0625-0.3969 0.0000 ( 48195 PWs)   bands (ev):

  -104.6355 -65.0295 -65.0286 -65.0283 -14.9942 -14.4900  -6.8510  -6.2573
    -5.2545  -4.8602  -4.3590  -4.0850  -3.2049  -2.9318  -2.8373  -1.8893
    -1.6030   1.6318   3.2715   3.6878

     occupation numbers
     1.0000   1.0000   1.0000   1.0000   1.0000   1.0000   1.0000   1.0000
     1.0000   1.0000   1.0000   1.0000   1.0000   1.0000   1.0000   1.0000
     0.0000   0.0000   0.0000   0.0000

          k =-0.0625-0.3248 0.0000 ( 48173 PWs)   bands (ev):

  -104.6355 -65.0296 -65.0285 -65.0283 -15.1978 -14.5579  -6.5041  -6.0481
    -5.2476  -4.8561  -4.1803  -3.8043  -3.1944  -2.8397  -2.7876  -2.0055
    -1.6117   2.0399   3.1762   3.4461

     occupation numbers
     1.0000   1.0000   1.0000   1.0000   1.0000   1.0000   1.0000   1.0000
     1.0000   1.0000   1.0000   1.0000   1.0000   1.0000   1.0000   1.0000
     0.0000   0.0000   0.0000   0.0000

          k =-0.0625-0.2526 0.0000 ( 48148 PWs)   bands (ev):

  -104.6355 -65.0296 -65.0284 -65.0282 -15.3900 -14.6408  -6.4472  -5.7121
    -4.9166  -4.8457  -3.9763  -3.5653  -3.1795  -2.7675  -2.7527  -2.0416
    -1.5967   2.5248   2.9206   3.1785

     occupation numbers
     1.0000   1.0000   1.0000   1.0000   1.0000   1.0000   1.0000   1.0000
     1.0000   1.0000   1.0000   1.0000   1.0000   1.0000   1.0000   1.0000
     0.0000   0.0000   0.0000   0.0000

          k =-0.0625-0.1804 0.0000 ( 48136 PWs)   bands (ev):

  -104.6355 -65.0296 -65.0283 -65.0282 -15.5503 -14.7200  -6.5477  -5.3759
    -4.8391  -4.3487  -3.7512  -3.4905  -3.1628  -2.7385  -2.7289  -1.9120
    -1.5309   2.5505   2.9466   3.0776

     occupation numbers
     1.0000   1.0000   1.0000   1.0000   1.0000   1.0000   1.0000   1.0000
     1.0000   1.0000   1.0000   1.0000   1.0000   1.0000   1.0000   1.0000
     0.0000   0.0000   0.0000   0.0000

          k =-0.0625-0.1083 0.0000 ( 48119 PWs)   bands (ev):

  -104.6355 -65.0296 -65.0282 -65.0282 -15.6643 -14.7808  -6.6503  -5.1051
    -4.8345  -3.7749  -3.5745  -3.5183  -3.1490  -2.7489  -2.7353  -1.6703
    -1.4159   2.2157   2.8347   3.1889

     occupation numbers
     1.0000   1.0000   1.0000   1.0000   1.0000   1.0000   1.0000   1.0000
     1.0000   1.0000   1.0000   1.0000   1.0000   1.0000   1.0000   0.0000
     0.0000   0.0000   0.0000   0.0000

     the Fermi energy is    -1.7738 ev
     (compare with:    -1.7806 eV, computed in scf)

     Writing all to output data dir ./tmp/c.save/

     init_run     :      0.87s CPU      0.90s WALL (       1 calls)
     electrons    :     84.65s CPU     85.11s WALL (       1 calls)

     Called by init_run:
     wfcinit      :      0.00s CPU      0.01s WALL (       1 calls)
     wfcinit:atom :      0.15s CPU      0.17s WALL (     256 calls)
     wfcinit:wfcr :      4.01s CPU      4.05s WALL (     256 calls)
     potinit      :      0.03s CPU      0.04s WALL (       1 calls)
     hinit0       :      0.69s CPU      0.70s WALL (       1 calls)

     Called by electrons:
     c_bands      :     84.65s CPU     85.10s WALL (       1 calls)
     v_of_rho     :      0.03s CPU      0.03s WALL (       1 calls)
     v_h          :      0.00s CPU      0.00s WALL (       1 calls)
     v_xc         :      0.02s CPU      0.02s WALL (       1 calls)

     Called by c_bands:
     init_us_2    :      0.21s CPU      0.24s WALL (     256 calls)
     init_us_2:cp :      0.21s CPU      0.24s WALL (     256 calls)
     cegterg      :     78.25s CPU     78.58s WALL (     521 calls)

     Called by sum_band:

     Called by *egterg:
     cdiaghg      :      4.31s CPU      4.33s WALL (    8791 calls)
     cegterg:over :      5.42s CPU      5.45s WALL (    8535 calls)
     cegterg:upda :      2.40s CPU      2.41s WALL (    8535 calls)
     cegterg:last :      2.83s CPU      2.84s WALL (    4146 calls)
     h_psi        :     64.57s CPU     64.87s WALL (    9312 calls)
     g_psi        :      0.65s CPU      0.66s WALL (    8535 calls)

     Called by h_psi:
     h_psi:calbec :      4.51s CPU      4.53s WALL (    9312 calls)
     vloc_psi     :     55.12s CPU     55.38s WALL (    9312 calls)
     add_vuspsi   :      4.31s CPU      4.33s WALL (    9312 calls)

     General routines
     calbec       :      4.49s CPU      4.51s WALL (    9312 calls)
     fft          :      0.09s CPU      0.10s WALL (      12 calls)
     ffts         :      0.00s CPU      0.00s WALL (       1 calls)
     fftw         :     47.24s CPU     47.45s WALL (  167584 calls)
     interpolate  :      0.00s CPU      0.00s WALL (       1 calls)
     davcio       :      0.18s CPU      0.26s WALL (     512 calls)

     Parallel routines

     PWSCF        :   1m27.69s CPU   1m30.37s WALL


   This run was terminated on:  15:36: 9  27Jun2023

=------------------------------------------------------------------------------=
   JOB DONE.
=------------------------------------------------------------------------------=
