
     Program PWSCF v.7.1 starts on 26Jun2023 at 23:16: 8 

     This program is part of the open-source Quantum ESPRESSO suite
     for quantum simulation of materials; please cite
         "P. Giannozzi et al., J. Phys.:Condens. Matter 21 395502 (2009);
         "P. Giannozzi et al., J. Phys.:Condens. Matter 29 465901 (2017);
         "P. Giannozzi et al., J. Chem. Phys. 152 154105 (2020);
          URL http://www.quantum-espresso.org", 
     in publications or presentations arising from this work. More details at
     http://www.quantum-espresso.org/quote

     Parallel version (MPI & OpenMP), running on      20 processor cores
     Number of MPI processes:                20
     Threads/MPI process:                     1

     MPI processes distributed on     1 nodes
     235041 MiB available memory on the printing compute node when the environment starts
 
     Reading input from input/nscf.in

     Current dimensions of program PWSCF are:
     Max number of different atomic species (ntypx) = 10
     Max number of k-points (npk) =  40000
     Max angular momentum in pseudopotentials (lmaxx) =  4

     Atomic positions and unit cell read from directory:
     ./tmp/c.save/
     Atomic positions from file used, from input discarded
 
     Message from routine setup:
     using ibrav=0 with symmetry is DISCOURAGED, use correct ibrav instead
 
     R & G space division:  proc/nbgrp/npool/nimage =      20
     Subspace diagonalization in iterative solution of the eigenvalue problem:
     a serial algorithm will be used

 
     Parallelization info
     --------------------
     sticks:   dense  smooth     PW     G-vecs:    dense   smooth      PW
     Min          93      89     24                20481    19267    2770
     Max          94      90     25                20502    19300    2795
     Sum        1879    1789    499               409943   385631   55807
 
     Using Slab Decomposition
 


     bravais-lattice index     =            0
     lattice parameter (alat)  =       7.3605  a.u.
     unit-cell volume          =    2170.2486 (a.u.)^3
     number of atoms/cell      =            3
     number of atomic types    =            2
     number of electrons       =        32.00
     number of Kohn-Sham states=           20
     kinetic-energy cutoff     =     120.0000  Ry
     charge density cutoff     =     500.0000  Ry
     Exchange-correlation= PBE
                           (   1   4   3   4   0   0   0)

     celldm(1)=   7.360481  celldm(2)=   0.000000  celldm(3)=   0.000000
     celldm(4)=   0.000000  celldm(5)=   0.000000  celldm(6)=   0.000000

     crystal axes: (cart. coord. in units of alat)
               a(1) = (   1.000000   0.000000   0.000000 )  
               a(2) = (  -0.500000   0.866025   0.000000 )  
               a(3) = (   0.000000   0.000000   6.284350 )  

     reciprocal axes: (cart. coord. in units 2 pi/alat)
               b(1) = (  1.000000  0.577350  0.000000 )  
               b(2) = (  0.000000  1.154701  0.000000 )  
               b(3) = (  0.000000  0.000000  0.159125 )  


     PseudoPot. # 1 for Ni read from file:
     ../pseudo/Ni.upf
     MD5 check sum: 14a7e289c5fff9cacaba393040e62f02
     Pseudo is Norm-conserving + core correction, Zval = 18.0
     Generated using ONCVPSP code by D. R. Hamann
     Using radial grid of 1372 points,  6 beta functions with: 
                l(1) =   0
                l(2) =   0
                l(3) =   1
                l(4) =   1
                l(5) =   2
                l(6) =   2

     PseudoPot. # 2 for I  read from file:
     ../pseudo/I.upf
     MD5 check sum: 301f7009ca0a2b18b0adf53dca02d42f
     Pseudo is Norm-conserving + core correction, Zval =  7.0
     Generated using ONCVPSP code by D. R. Hamann
     Using radial grid of 1210 points,  6 beta functions with: 
                l(1) =   0
                l(2) =   0
                l(3) =   1
                l(4) =   1
                l(5) =   2
                l(6) =   2

     atomic species   valence    mass     pseudopotential
        Ni            18.00    58.69340     Ni( 1.00)
        I              7.00   126.90447     I ( 1.00)

     12 Sym. Ops., with inversion, found


                                    s                        frac. trans.

      isym =  1     identity                                     

 cryst.   s( 1) = (     1          0          0      )
                  (     0          1          0      )
                  (     0          0          1      )

 cart.    s( 1) = (  1.0000000 -0.0000000  0.0000000 )
                  (  0.0000000  1.0000000  0.0000000 )
                  (  0.0000000  0.0000000  1.0000000 )


      isym =  2     180 deg rotation - cart. axis [1,0,0]        

 cryst.   s( 2) = (     1          0          0      )
                  (    -1         -1          0      )
                  (     0          0         -1      )

 cart.    s( 2) = (  1.0000000  0.0000000  0.0000000 )
                  (  0.0000000 -1.0000000  0.0000000 )
                  (  0.0000000  0.0000000 -1.0000000 )


      isym =  3     120 deg rotation - cryst. axis [0,0,1]       

 cryst.   s( 3) = (     0          1          0      )
                  (    -1         -1          0      )
                  (     0          0          1      )

 cart.    s( 3) = ( -0.5000000 -0.8660254  0.0000000 )
                  (  0.8660254 -0.5000000  0.0000000 )
                  (  0.0000000  0.0000000  1.0000000 )


      isym =  4     120 deg rotation - cryst. axis [0,0,-1]      

 cryst.   s( 4) = (    -1         -1          0      )
                  (     1          0          0      )
                  (     0          0          1      )

 cart.    s( 4) = ( -0.5000000  0.8660254  0.0000000 )
                  ( -0.8660254 -0.5000000  0.0000000 )
                  (  0.0000000  0.0000000  1.0000000 )


      isym =  5     180 deg rotation - cryst. axis [0,1,0]       

 cryst.   s( 5) = (    -1         -1          0      )
                  (     0          1          0      )
                  (     0          0         -1      )

 cart.    s( 5) = ( -0.5000000 -0.8660254  0.0000000 )
                  ( -0.8660254  0.5000000  0.0000000 )
                  (  0.0000000  0.0000000 -1.0000000 )


      isym =  6     180 deg rotation - cryst. axis [1,1,0]       

 cryst.   s( 6) = (     0          1          0      )
                  (     1          0          0      )
                  (     0          0         -1      )

 cart.    s( 6) = ( -0.5000000  0.8660254  0.0000000 )
                  (  0.8660254  0.5000000  0.0000000 )
                  (  0.0000000  0.0000000 -1.0000000 )


      isym =  7     inversion                                    

 cryst.   s( 7) = (    -1          0          0      )
                  (     0         -1          0      )
                  (     0          0         -1      )

 cart.    s( 7) = ( -1.0000000  0.0000000  0.0000000 )
                  (  0.0000000 -1.0000000  0.0000000 )
                  (  0.0000000  0.0000000 -1.0000000 )


      isym =  8     inv. 180 deg rotation - cart. axis [1,0,0]   

 cryst.   s( 8) = (    -1          0          0      )
                  (     1          1          0      )
                  (     0          0          1      )

 cart.    s( 8) = ( -1.0000000 -0.0000000  0.0000000 )
                  (  0.0000000  1.0000000  0.0000000 )
                  (  0.0000000  0.0000000  1.0000000 )


      isym =  9     inv. 120 deg rotation - cryst. axis [0,0,1]  

 cryst.   s( 9) = (     0         -1          0      )
                  (     1          1          0      )
                  (     0          0         -1      )

 cart.    s( 9) = (  0.5000000  0.8660254  0.0000000 )
                  ( -0.8660254  0.5000000  0.0000000 )
                  (  0.0000000  0.0000000 -1.0000000 )


      isym = 10     inv. 120 deg rotation - cryst. axis [0,0,-1] 

 cryst.   s(10) = (     1          1          0      )
                  (    -1          0          0      )
                  (     0          0         -1      )

 cart.    s(10) = (  0.5000000 -0.8660254  0.0000000 )
                  (  0.8660254  0.5000000  0.0000000 )
                  (  0.0000000  0.0000000 -1.0000000 )


      isym = 11     inv. 180 deg rotation - cryst. axis [0,1,0]  

 cryst.   s(11) = (     1          1          0      )
                  (     0         -1          0      )
                  (     0          0          1      )

 cart.    s(11) = (  0.5000000  0.8660254  0.0000000 )
                  (  0.8660254 -0.5000000  0.0000000 )
                  (  0.0000000  0.0000000  1.0000000 )


      isym = 12     inv. 180 deg rotation - cryst. axis [1,1,0]  

 cryst.   s(12) = (     0         -1          0      )
                  (    -1          0          0      )
                  (     0          0          1      )

 cart.    s(12) = (  0.5000000 -0.8660254  0.0000000 )
                  ( -0.8660254 -0.5000000  0.0000000 )
                  (  0.0000000  0.0000000  1.0000000 )


   Cartesian axes

     site n.     atom                  positions (alat units)
         1           Ni  tau(   1) = (   0.0000000   0.0000000   3.1421749  )
         2           I   tau(   2) = (  -0.0000000   0.5773503   3.5289144  )
         3           I   tau(   3) = (   0.5000000   0.2886751   2.7554354  )

   Crystallographic axes

     site n.     atom                  positions (cryst. coord.)
         1           Ni  tau(   1) = (  0.0000000  0.0000000  0.5000000  )
         2           I   tau(   2) = (  0.3333333  0.6666667  0.5615401  )
         3           I   tau(   3) = (  0.6666667  0.3333333  0.4384599  )

     number of k points=    30  Marzari-Vanderbilt smearing, width (Ry)=  0.0015
                       cart. coord. in units 2pi/alat
        k(    1) = (   0.0000000   0.0000000   0.0000000), wk =   0.0078125
        k(    2) = (   0.0000000   0.0721688   0.0000000), wk =   0.0468750
        k(    3) = (   0.0000000   0.1443376   0.0000000), wk =   0.0468750
        k(    4) = (   0.0000000   0.2165064   0.0000000), wk =   0.0468750
        k(    5) = (   0.0000000   0.2886751   0.0000000), wk =   0.0468750
        k(    6) = (   0.0000000   0.3608439   0.0000000), wk =   0.0468750
        k(    7) = (   0.0000000   0.4330127   0.0000000), wk =   0.0468750
        k(    8) = (   0.0000000   0.5051815   0.0000000), wk =   0.0468750
        k(    9) = (   0.0000000  -0.5773503   0.0000000), wk =   0.0234375
        k(   10) = (   0.0625000   0.1082532   0.0000000), wk =   0.0468750
        k(   11) = (   0.0625000   0.1804220   0.0000000), wk =   0.0937500
        k(   12) = (   0.0625000   0.2525907   0.0000000), wk =   0.0937500
        k(   13) = (   0.0625000   0.3247595   0.0000000), wk =   0.0937500
        k(   14) = (   0.0625000   0.3969283   0.0000000), wk =   0.0937500
        k(   15) = (   0.0625000   0.4690971   0.0000000), wk =   0.0937500
        k(   16) = (   0.0625000   0.5412659   0.0000000), wk =   0.0937500
        k(   17) = (   0.1250000   0.2165064   0.0000000), wk =   0.0468750
        k(   18) = (   0.1250000   0.2886751   0.0000000), wk =   0.0937500
        k(   19) = (   0.1250000   0.3608439   0.0000000), wk =   0.0937500
        k(   20) = (   0.1250000   0.4330127   0.0000000), wk =   0.0937500
        k(   21) = (   0.1250000   0.5051815   0.0000000), wk =   0.0937500
        k(   22) = (   0.1250000   0.5773503   0.0000000), wk =   0.0468750
        k(   23) = (   0.1875000   0.3247595   0.0000000), wk =   0.0468750
        k(   24) = (   0.1875000   0.3969283   0.0000000), wk =   0.0937500
        k(   25) = (   0.1875000   0.4690971   0.0000000), wk =   0.0937500
        k(   26) = (   0.1875000   0.5412659   0.0000000), wk =   0.0937500
        k(   27) = (   0.2500000   0.4330127   0.0000000), wk =   0.0468750
        k(   28) = (   0.2500000   0.5051815   0.0000000), wk =   0.0937500
        k(   29) = (   0.2500000   0.5773503   0.0000000), wk =   0.0468750
        k(   30) = (   0.3125000   0.5412659   0.0000000), wk =   0.0468750

                       cryst. coord.
        k(    1) = (   0.0000000   0.0000000   0.0000000), wk =   0.0078125
        k(    2) = (   0.0000000   0.0625000   0.0000000), wk =   0.0468750
        k(    3) = (   0.0000000   0.1250000   0.0000000), wk =   0.0468750
        k(    4) = (   0.0000000   0.1875000   0.0000000), wk =   0.0468750
        k(    5) = (   0.0000000   0.2500000   0.0000000), wk =   0.0468750
        k(    6) = (   0.0000000   0.3125000   0.0000000), wk =   0.0468750
        k(    7) = (   0.0000000   0.3750000   0.0000000), wk =   0.0468750
        k(    8) = (   0.0000000   0.4375000   0.0000000), wk =   0.0468750
        k(    9) = (   0.0000000  -0.5000000   0.0000000), wk =   0.0234375
        k(   10) = (   0.0625000   0.0625000   0.0000000), wk =   0.0468750
        k(   11) = (   0.0625000   0.1250000   0.0000000), wk =   0.0937500
        k(   12) = (   0.0625000   0.1875000   0.0000000), wk =   0.0937500
        k(   13) = (   0.0625000   0.2500000   0.0000000), wk =   0.0937500
        k(   14) = (   0.0625000   0.3125000   0.0000000), wk =   0.0937500
        k(   15) = (   0.0625000   0.3750000   0.0000000), wk =   0.0937500
        k(   16) = (   0.0625000   0.4375000   0.0000000), wk =   0.0937500
        k(   17) = (   0.1250000   0.1250000   0.0000000), wk =   0.0468750
        k(   18) = (   0.1250000   0.1875000   0.0000000), wk =   0.0937500
        k(   19) = (   0.1250000   0.2500000   0.0000000), wk =   0.0937500
        k(   20) = (   0.1250000   0.3125000   0.0000000), wk =   0.0937500
        k(   21) = (   0.1250000   0.3750000   0.0000000), wk =   0.0937500
        k(   22) = (   0.1250000   0.4375000   0.0000000), wk =   0.0468750
        k(   23) = (   0.1875000   0.1875000   0.0000000), wk =   0.0468750
        k(   24) = (   0.1875000   0.2500000   0.0000000), wk =   0.0937500
        k(   25) = (   0.1875000   0.3125000   0.0000000), wk =   0.0937500
        k(   26) = (   0.1875000   0.3750000   0.0000000), wk =   0.0937500
        k(   27) = (   0.2500000   0.2500000   0.0000000), wk =   0.0468750
        k(   28) = (   0.2500000   0.3125000   0.0000000), wk =   0.0937500
        k(   29) = (   0.2500000   0.3750000   0.0000000), wk =   0.0468750
        k(   30) = (   0.3125000   0.3125000   0.0000000), wk =   0.0468750

     Dense  grid:   409943 G-vectors     FFT dimensions: (  54,  54, 360)

     Smooth grid:   385631 G-vectors     FFT dimensions: (  54,  54, 324)

     Dynamical RAM for                 wfc:       0.73 MB

     Dynamical RAM for     wfc (w. buffer):       0.73 MB

     Dynamical RAM for           str. fact:       0.63 MB

     Dynamical RAM for           local pot:       0.00 MB

     Dynamical RAM for          nlocal pot:       1.98 MB

     Dynamical RAM for                qrad:       3.59 MB

     Dynamical RAM for          rho,v,vnew:       2.14 MB

     Dynamical RAM for           G-vectors:       1.32 MB

     Dynamical RAM for          h,s,v(r/c):       0.07 MB

     Dynamical RAM for          <psi|beta>:       0.02 MB

     Dynamical RAM for                 psi:       1.47 MB

     Dynamical RAM for                hpsi:       1.47 MB

     Dynamical RAM for      wfcinit/wfcrot:       1.48 MB

     Estimated static dynamical RAM per process >      13.33 MB

     Estimated max dynamical RAM per process >      16.36 MB

     Estimated total dynamical RAM >     327.25 MB

     The potential is recalculated from file :
     ./tmp/c.save/charge-density

     Starting wfcs are   18 randomized atomic wfcs +    2 random wfcs

     Band Structure Calculation
     Davidson diagonalization with overlap

     Computing kpt #:     1  of    30
     total cpu time spent up to now is        1.7 secs

     Computing kpt #:     2  of    30
     total cpu time spent up to now is        2.1 secs

     Computing kpt #:     3  of    30
     total cpu time spent up to now is        2.5 secs

     Computing kpt #:     4  of    30
     total cpu time spent up to now is        2.8 secs

     Computing kpt #:     5  of    30
     total cpu time spent up to now is        3.2 secs

     Computing kpt #:     6  of    30
     total cpu time spent up to now is        3.5 secs

     Computing kpt #:     7  of    30
     total cpu time spent up to now is        3.9 secs

     Computing kpt #:     8  of    30
     total cpu time spent up to now is        4.2 secs

     Computing kpt #:     9  of    30
     total cpu time spent up to now is        4.5 secs

     Computing kpt #:    10  of    30
     total cpu time spent up to now is        4.8 secs

     Computing kpt #:    11  of    30
     total cpu time spent up to now is        5.2 secs

     Computing kpt #:    12  of    30
     total cpu time spent up to now is        5.5 secs

     Computing kpt #:    13  of    30
     total cpu time spent up to now is        5.8 secs

     Computing kpt #:    14  of    30
     total cpu time spent up to now is        6.1 secs

     Computing kpt #:    15  of    30
     total cpu time spent up to now is        6.5 secs

     Computing kpt #:    16  of    30
     total cpu time spent up to now is        6.8 secs

     Computing kpt #:    17  of    30
     total cpu time spent up to now is        7.1 secs

     Computing kpt #:    18  of    30
     total cpu time spent up to now is        7.5 secs

     Computing kpt #:    19  of    30
     total cpu time spent up to now is        7.8 secs

     Computing kpt #:    20  of    30
     total cpu time spent up to now is        8.1 secs

     Computing kpt #:    21  of    30
     total cpu time spent up to now is        8.5 secs

     Computing kpt #:    22  of    30
     total cpu time spent up to now is        8.9 secs

     Computing kpt #:    23  of    30
     total cpu time spent up to now is        9.2 secs

     Computing kpt #:    24  of    30
     total cpu time spent up to now is        9.6 secs

     Computing kpt #:    25  of    30
     total cpu time spent up to now is        9.9 secs

     Computing kpt #:    26  of    30
     total cpu time spent up to now is       10.3 secs

     Computing kpt #:    27  of    30
     total cpu time spent up to now is       10.7 secs

     Computing kpt #:    28  of    30
     total cpu time spent up to now is       11.0 secs

     Computing kpt #:    29  of    30
     total cpu time spent up to now is       11.4 secs

     Computing kpt #:    30  of    30
     total cpu time spent up to now is       11.7 secs

     ethr =  3.12E-09,  avg # of iterations = 32.7

     total cpu time spent up to now is       11.7 secs

     End of band structure calculation

          k = 0.0000 0.0000 0.0000 ( 48107 PWs)   bands (ev):

  -104.6355 -65.0296 -65.0282 -65.0282 -15.7534 -14.8306  -6.7391  -4.8356
    -4.8356  -3.7411  -3.2561  -3.2561  -3.0002  -2.8300  -2.8300  -1.3061
    -1.3061   1.8451   2.5769   2.7242

     occupation numbers 
     1.0000   1.0000   1.0000   1.0000   1.0000   1.0000   1.0000   1.0000
     1.0000   1.0000   1.0000   1.0000   1.0000   1.0000   1.0000   0.0000
     0.0000   0.0000   0.0000   0.0000

          k = 0.0000 0.0722 0.0000 ( 48113 PWs)   bands (ev):

  -104.6355 -65.0296 -65.0282 -65.0282 -15.7234 -14.8136  -6.7085  -4.9369
    -4.8340  -3.6706  -3.4232  -3.3451  -3.1219  -2.7887  -2.7648  -1.4620
    -1.3350   1.9860   2.7586   2.8168

     occupation numbers 
     1.0000   1.0000   1.0000   1.0000   1.0000   1.0000   1.0000   1.0000
     1.0000   1.0000   1.0000   1.0000   1.0000   1.0000   1.0000   0.0000
     0.0000   0.0000   0.0000   0.0000

          k = 0.0000 0.1443 0.0000 ( 48142 PWs)   bands (ev):

  -104.6355 -65.0296 -65.0282 -65.0282 -15.6353 -14.7651  -6.6228  -5.1842
    -4.8297  -3.9650  -3.5392  -3.5357  -3.1706  -2.7388  -2.7306  -1.7951
    -1.4023   2.3079   2.8665   3.0854

     occupation numbers 
     1.0000   1.0000   1.0000   1.0000   1.0000   1.0000   1.0000   1.0000
     1.0000   1.0000   1.0000   1.0000   1.0000   1.0000   1.0000   1.0446
     0.0000   0.0000   0.0000   0.0000

          k = 0.0000 0.2165 0.0000 ( 48158 PWs)   bands (ev):

  -104.6355 -65.0296 -65.0283 -65.0282 -15.4954 -14.6922  -6.5068  -5.5133
    -4.8237  -4.6000  -3.7534  -3.5046  -3.1977  -2.7424  -2.7359  -2.0527
    -1.4691   2.6074   2.7174   3.0645

     occupation numbers 
     1.0000   1.0000   1.0000   1.0000   1.0000   1.0000   1.0000   1.0000
     1.0000   1.0000   1.0000   1.0000   1.0000   1.0000   1.0000   1.0000
     0.0000   0.0000   0.0000   0.0000

          k = 0.0000 0.2887 0.0000 ( 48148 PWs)   bands (ev):

  -104.6355 -65.0296 -65.0284 -65.0282 -15.3152 -14.6074  -6.4462  -5.8909
    -5.0979  -4.8171  -3.9648  -3.6688  -3.2224  -2.8013  -2.7668  -2.0783
    -1.5103   2.1338   2.9950   3.2864

     occupation numbers 
     1.0000   1.0000   1.0000   1.0000   1.0000   1.0000   1.0000   1.0000
     1.0000   1.0000   1.0000   1.0000   1.0000   1.0000   1.0000   1.0000
     0.0000   0.0000   0.0000   0.0000

          k = 0.0000 0.3608 0.0000 ( 48214 PWs)   bands (ev):

  -104.6355 -65.0296 -65.0285 -65.0283 -15.1120 -14.5278  -6.6679  -6.1667
    -5.2815  -4.8106  -4.1497  -3.9464  -3.2446  -2.8871  -2.8136  -1.9535
    -1.5264   1.6759   3.1443   3.5522

     occupation numbers 
     1.0000   1.0000   1.0000   1.0000   1.0000   1.0000   1.0000   1.0000
     1.0000   1.0000   1.0000   1.0000   1.0000   1.0000   1.0000   1.0000
     0.0000   0.0000   0.0000   0.0000

          k = 0.0000 0.4330 0.0000 ( 48212 PWs)   bands (ev):

  -104.6355 -65.0295 -65.0286 -65.0283 -14.9102 -14.4735  -7.0644  -6.3513
    -5.1782  -4.8042  -4.2944  -4.2206  -3.2633  -2.9685  -2.8784  -1.8074
    -1.5290   1.3321   3.1368   3.5956

     occupation numbers 
     1.0000   1.0000   1.0000   1.0000   1.0000   1.0000   1.0000   1.0000
     1.0000   1.0000   1.0000   1.0000   1.0000   1.0000   1.0000   1.0701
     0.0000   0.0000   0.0000   0.0000

          k = 0.0000 0.5052 0.0000 ( 48214 PWs)   bands (ev):

  -104.6355 -65.0295 -65.0287 -65.0283 -14.7435 -14.4595  -7.3601  -6.4938
    -4.9668  -4.7984  -4.4543  -4.3877  -3.2771  -3.0241  -2.9437  -1.7065
    -1.5273   1.1291   3.0618   3.6447

     occupation numbers 
     1.0000   1.0000   1.0000   1.0000   1.0000   1.0000   1.0000   1.0000
     1.0000   1.0000   1.0000   1.0000   1.0000   1.0000   1.0000   0.0000
     0.0000   0.0000   0.0000   0.0000

          k = 0.0000-0.5774 0.0000 ( 48254 PWs)   bands (ev):

  -104.6355 -65.0295 -65.0287 -65.0283 -14.6686 -14.4688  -7.4661  -6.5471
    -4.8128  -4.7959  -4.6012  -4.4203  -3.2826  -3.0436  -2.9725  -1.6720
    -1.5263   1.0640   3.0220   3.8179

     occupation numbers 
     1.0000   1.0000   1.0000   1.0000   1.0000   1.0000   1.0000   1.0000
     1.0000   1.0000   1.0000   1.0000   1.0000   1.0000   1.0000   0.0000
     0.0000   0.0000   0.0000   0.0000

          k = 0.0625 0.1083 0.0000 ( 48119 PWs)   bands (ev):

  -104.6355 -65.0296 -65.0282 -65.0282 -15.6643 -14.7808  -6.6503  -5.1051
    -4.8345  -3.7749  -3.5745  -3.5183  -3.1490  -2.7489  -2.7353  -1.6703
    -1.4159   2.2157   2.8347   3.1889

     occupation numbers 
     1.0000   1.0000   1.0000   1.0000   1.0000   1.0000   1.0000   1.0000
     1.0000   1.0000   1.0000   1.0000   1.0000   1.0000   1.0000   0.0000
     0.0000   0.0000   0.0000   0.0000

          k = 0.0625 0.1804 0.0000 ( 48136 PWs)   bands (ev):

  -104.6355 -65.0296 -65.0283 -65.0282 -15.5503 -14.7200  -6.5477  -5.3759
    -4.8391  -4.3487  -3.7512  -3.4905  -3.1628  -2.7385  -2.7289  -1.9120
    -1.5309   2.5505   2.9466   3.0776

     occupation numbers 
     1.0000   1.0000   1.0000   1.0000   1.0000   1.0000   1.0000   1.0000
     1.0000   1.0000   1.0000   1.0000   1.0000   1.0000   1.0000   1.0000
     0.0000   0.0000   0.0000   0.0000

          k = 0.0625 0.2526 0.0000 ( 48148 PWs)   bands (ev):

  -104.6355 -65.0296 -65.0284 -65.0282 -15.3900 -14.6408  -6.4472  -5.7121
    -4.9166  -4.8457  -3.9763  -3.5653  -3.1795  -2.7675  -2.7527  -2.0416
    -1.5967   2.5248   2.9206   3.1785

     occupation numbers 
     1.0000   1.0000   1.0000   1.0000   1.0000   1.0000   1.0000   1.0000
     1.0000   1.0000   1.0000   1.0000   1.0000   1.0000   1.0000   1.0000
     0.0000   0.0000   0.0000   0.0000

          k = 0.0625 0.3248 0.0000 ( 48173 PWs)   bands (ev):

  -104.6355 -65.0296 -65.0285 -65.0283 -15.1978 -14.5579  -6.5041  -6.0481
    -5.2476  -4.8561  -4.1803  -3.8043  -3.1944  -2.8397  -2.7876  -2.0055
    -1.6117   2.0399   3.1762   3.4461

     occupation numbers 
     1.0000   1.0000   1.0000   1.0000   1.0000   1.0000   1.0000   1.0000
     1.0000   1.0000   1.0000   1.0000   1.0000   1.0000   1.0000   1.0000
     0.0000   0.0000   0.0000   0.0000

          k = 0.0625 0.3969 0.0000 ( 48195 PWs)   bands (ev):

  -104.6355 -65.0295 -65.0286 -65.0283 -14.9942 -14.4900  -6.8510  -6.2573
    -5.2545  -4.8602  -4.3590  -4.0850  -3.2049  -2.9318  -2.8373  -1.8893
    -1.6030   1.6318   3.2715   3.6878

     occupation numbers 
     1.0000   1.0000   1.0000   1.0000   1.0000   1.0000   1.0000   1.0000
     1.0000   1.0000   1.0000   1.0000   1.0000   1.0000   1.0000   1.0000
     0.0000   0.0000   0.0000   0.0000

          k = 0.0625 0.4691 0.0000 ( 48179 PWs)   bands (ev):

  -104.6355 -65.0295 -65.0286 -65.0283 -14.8075 -14.4559  -7.2077  -6.4189
    -5.0826  -4.8486  -4.5122  -4.3257  -3.2124  -3.0037  -2.9015  -1.7751
    -1.5975   1.3514   3.2782   3.6977

     occupation numbers 
     1.0000   1.0000   1.0000   1.0000   1.0000   1.0000   1.0000   1.0000
     1.0000   1.0000   1.0000   1.0000   1.0000   1.0000   1.0000   0.4473
     0.0000   0.0000   0.0000   0.0000

          k = 0.0625 0.5413 0.0000 ( 48239 PWs)   bands (ev):

  -104.6355 -65.0295 -65.0287 -65.0283 -14.6786 -14.4599  -7.4108  -6.5144
    -4.9013  -4.8244  -4.6068  -4.5085  -3.2200  -3.0329  -2.9555  -1.6955
    -1.6121   1.2147   3.2440   3.8065

     occupation numbers 
     1.0000   1.0000   1.0000   1.0000   1.0000   1.0000   1.0000   1.0000
     1.0000   1.0000   1.0000   1.0000   1.0000   1.0000   1.0000   0.0000
     0.0000   0.0000   0.0000   0.0000

          k = 0.1250 0.2165 0.0000 ( 48125 PWs)   bands (ev):

  -104.6355 -65.0296 -65.0284 -65.0282 -15.4157 -14.6526  -6.4539  -5.6268
    -4.8760  -4.8184  -4.0388  -3.5249  -3.1500  -2.7579  -2.7471  -1.9135
    -1.7542   2.8417   2.9777   3.0932

     occupation numbers 
     1.0000   1.0000   1.0000   1.0000   1.0000   1.0000   1.0000   1.0000
     1.0000   1.0000   1.0000   1.0000   1.0000   1.0000   1.0000   1.0000
     0.0316   0.0000   0.0000   0.0000

          k = 0.1250 0.2887 0.0000 ( 48141 PWs)   bands (ev):

  -104.6355 -65.0296 -65.0285 -65.0283 -15.2429 -14.5745  -6.4284  -5.9140
    -5.2060  -4.9318  -4.2876  -3.7024  -3.1448  -2.8013  -2.7700  -1.9696
    -1.7963   2.5664   3.2109   3.3146

     occupation numbers 
     1.0000   1.0000   1.0000   1.0000   1.0000   1.0000   1.0000   1.0000
     1.0000   1.0000   1.0000   1.0000   1.0000   1.0000   1.0000   1.0000
     1.0583   0.0000   0.0000   0.0000

          k = 0.1250 0.3608 0.0000 ( 48162 PWs)   bands (ev):

  -104.6355 -65.0296 -65.0285 -65.0283 -15.0489 -14.5018  -6.6338  -6.1642
    -5.3147  -4.9864  -4.4957  -3.9669  -3.1368  -2.8928  -2.7954  -1.9981
    -1.7237   2.1555   3.3541   3.7158

     occupation numbers 
     1.0000   1.0000   1.0000   1.0000   1.0000   1.0000   1.0000   1.0000
     1.0000   1.0000   1.0000   1.0000   1.0000   1.0000   1.0000   1.0000
     0.0000   0.0000   0.0000   0.0000

          k = 0.1250 0.4330 0.0000 ( 48177 PWs)   bands (ev):

  -104.6355 -65.0295 -65.0286 -65.0283 -14.8575 -14.4527  -6.9845  -6.3275
    -5.2331  -4.9894  -4.6786  -4.2276  -3.1236  -2.9838  -2.8423  -1.9459
    -1.6786   1.8103   3.4955   4.0045

     occupation numbers 
     1.0000   1.0000   1.0000   1.0000   1.0000   1.0000   1.0000   1.0000
     1.0000   1.0000   1.0000   1.0000   1.0000   1.0000   1.0000   1.0000
     0.0000   0.0000   0.0000   0.0000

          k = 0.1250 0.5052 0.0000 ( 48212 PWs)   bands (ev):

  -104.6355 -65.0295 -65.0287 -65.0283 -14.6999 -14.4411  -7.2545  -6.4324
    -5.1737  -4.8895  -4.7994  -4.4482  -3.1261  -3.0206  -2.8998  -1.8676
    -1.6849   1.5947   3.6454   4.0684

     occupation numbers 
     1.0000   1.0000   1.0000   1.0000   1.0000   1.0000   1.0000   1.0000
     1.0000   1.0000   1.0000   1.0000   1.0000   1.0000   1.0000   1.0000
     0.0000   0.0000   0.0000   0.0000

          k = 0.1250 0.5774 0.0000 ( 48240 PWs)   bands (ev):

  -104.6355 -65.0295 -65.0287 -65.0283 -14.6287 -14.4511  -7.3525  -6.4694
    -5.1588  -4.9096  -4.6600  -4.6361  -3.1391  -3.0083  -2.9361  -1.8173
    -1.7111   1.5236   3.7175   4.1479

     occupation numbers 
     1.0000   1.0000   1.0000   1.0000   1.0000   1.0000   1.0000   1.0000
     1.0000   1.0000   1.0000   1.0000   1.0000   1.0000   1.0000   1.0270
     0.0000   0.0000   0.0000   0.0000

          k = 0.1875 0.3248 0.0000 ( 48145 PWs)   bands (ev):

  -104.6355 -65.0296 -65.0285 -65.0283 -15.0679 -14.5060  -6.5363  -6.1119
    -5.3644  -5.0460  -4.5520  -3.9163  -3.1156  -2.8745  -2.7735  -2.0644
    -1.7679   2.5137   3.2410   3.7177

     occupation numbers 
     1.0000   1.0000   1.0000   1.0000   1.0000   1.0000   1.0000   1.0000
     1.0000   1.0000   1.0000   1.0000   1.0000   1.0000   1.0000   1.0000
     0.2247   0.0000   0.0000   0.0000

          k = 0.1875 0.3969 0.0000 ( 48173 PWs)   bands (ev):

  -104.6355 -65.0295 -65.0286 -65.0283 -14.8847 -14.4510  -6.7798  -6.2735
    -5.4280  -5.0675  -4.7625  -4.1648  -3.0823  -2.9651  -2.7962  -2.1063
    -1.7103   2.2693   3.3490   4.1727

     occupation numbers 
     1.0000   1.0000   1.0000   1.0000   1.0000   1.0000   1.0000   1.0000
     1.0000   1.0000   1.0000   1.0000   1.0000   1.0000   1.0000   1.0000
     0.0000   0.0000   0.0000   0.0000

          k = 0.1875 0.4691 0.0000 ( 48158 PWs)   bands (ev):

  -104.6355 -65.0295 -65.0286 -65.0284 -14.7183 -14.4252  -7.0410  -6.3558
    -5.5239  -4.9456  -4.9239  -4.3906  -3.0656  -3.0159  -2.8381  -2.0652
    -1.7141   2.0162   3.5843   4.4588

     occupation numbers 
     1.0000   1.0000   1.0000   1.0000   1.0000   1.0000   1.0000   1.0000
     1.0000   1.0000   1.0000   1.0000   1.0000   1.0000   1.0000   1.0000
     0.0000   0.0000   0.0000   0.0000

          k = 0.1875 0.5413 0.0000 ( 48174 PWs)   bands (ev):

  -104.6355 -65.0295 -65.0286 -65.0284 -14.6029 -14.4327  -7.1990  -6.3822
    -5.5983  -5.0319  -4.7595  -4.5804  -3.1015  -2.9778  -2.8843  -2.0013
    -1.7586   1.8745   3.9138   4.3452

     occupation numbers 
     1.0000   1.0000   1.0000   1.0000   1.0000   1.0000   1.0000   1.0000
     1.0000   1.0000   1.0000   1.0000   1.0000   1.0000   1.0000   1.0000
     0.0653   0.0000   0.0000   0.0000

          k = 0.2500 0.4330 0.0000 ( 48187 PWs)   bands (ev):

  -104.6355 -65.0295 -65.0286 -65.0284 -14.7254 -14.4192  -6.9145  -6.3411
    -5.6831  -4.9765  -4.9630  -4.3699  -3.0451  -3.0140  -2.8117  -2.1447
    -1.7257   2.2216   3.4331   4.6885

     occupation numbers 
     1.0000   1.0000   1.0000   1.0000   1.0000   1.0000   1.0000   1.0000
     1.0000   1.0000   1.0000   1.0000   1.0000   1.0000   1.0000   1.0000
     0.0000   0.0000   0.0000   0.0000

          k = 0.2500 0.5052 0.0000 ( 48229 PWs)   bands (ev):

  -104.6355 -65.0295 -65.0286 -65.0284 -14.5944 -14.4174  -7.0204  -6.3318
    -5.9090  -5.1415  -4.8176  -4.5390  -3.0877  -2.9603  -2.8426  -2.1032
    -1.7969   2.0956   3.7271   4.6273

     occupation numbers 
     1.0000   1.0000   1.0000   1.0000   1.0000   1.0000   1.0000   1.0000
     1.0000   1.0000   1.0000   1.0000   1.0000   1.0000   1.0000   1.0000
     1.0633   0.0000   0.0000   0.0000

          k = 0.2500 0.5774 0.0000 ( 48231 PWs)   bands (ev):

  -104.6355 -65.0295 -65.0286 -65.0285 -14.5312 -14.4329  -7.0622  -6.2964
    -6.0141  -5.2070  -4.7022  -4.6552  -3.1049  -2.9233  -2.8691  -2.0564
    -1.8549   2.0391   4.0839   4.2375

     occupation numbers 
     1.0000   1.0000   1.0000   1.0000   1.0000   1.0000   1.0000   1.0000
     1.0000   1.0000   1.0000   1.0000   1.0000   1.0000   1.0000   1.0000
     1.0000   0.0000   0.0000   0.0000

          k = 0.3125 0.5413 0.0000 ( 48231 PWs)   bands (ev):

  -104.6355 -65.0295 -65.0286 -65.0285 -14.5017 -14.4371  -6.9611  -6.2792
    -6.1818  -5.2922  -4.7215  -4.6396  -3.1071  -2.9033  -2.8614  -2.0496
    -1.9160   2.0828   4.0351   4.3976

     occupation numbers 
     1.0000   1.0000   1.0000   1.0000   1.0000   1.0000   1.0000   1.0000
     1.0000   1.0000   1.0000   1.0000   1.0000   1.0000   1.0000   1.0000
     1.0000   0.0000   0.0000   0.0000

     the Fermi energy is    -1.7738 ev
     (compare with:    -1.7806 eV, computed in scf)

     Writing all to output data dir ./tmp/c.save/
 
     init_run     :      1.14s CPU      1.20s WALL (       1 calls)
     electrons    :     10.28s CPU     10.34s WALL (       1 calls)

     Called by init_run:
     wfcinit      :      0.00s CPU      0.00s WALL (       1 calls)
     wfcinit:atom :      0.02s CPU      0.02s WALL (      30 calls)
     wfcinit:wfcr :      0.49s CPU      0.50s WALL (      30 calls)
     potinit      :      0.04s CPU      0.04s WALL (       1 calls)
     hinit0       :      0.99s CPU      1.04s WALL (       1 calls)

     Called by electrons:
     c_bands      :     10.27s CPU     10.34s WALL (       1 calls)
     v_of_rho     :      0.03s CPU      0.03s WALL (       1 calls)
     v_h          :      0.00s CPU      0.00s WALL (       1 calls)
     v_xc         :      0.03s CPU      0.03s WALL (       1 calls)

     Called by c_bands:
     init_us_2    :      0.03s CPU      0.03s WALL (      30 calls)
     init_us_2:cp :      0.03s CPU      0.03s WALL (      30 calls)
     cegterg      :      9.51s CPU      9.56s WALL (      60 calls)

     Called by sum_band:

     Called by *egterg:
     cdiaghg      :      0.50s CPU      0.50s WALL (    1012 calls)
     cegterg:over :      0.71s CPU      0.72s WALL (     982 calls)
     cegterg:upda :      0.31s CPU      0.31s WALL (     982 calls)
     cegterg:last :      0.36s CPU      0.37s WALL (     481 calls)
     h_psi        :      7.77s CPU      7.81s WALL (    1072 calls)
     g_psi        :      0.08s CPU      0.08s WALL (     982 calls)

     Called by h_psi:
     h_psi:calbec :      0.58s CPU      0.59s WALL (    1072 calls)
     vloc_psi     :      6.62s CPU      6.66s WALL (    1072 calls)
     add_vuspsi   :      0.48s CPU      0.48s WALL (    1072 calls)

     General routines
     calbec       :      0.58s CPU      0.58s WALL (    1072 calls)
     fft          :      0.06s CPU      0.10s WALL (      12 calls)
     ffts         :      0.00s CPU      0.00s WALL (       1 calls)
     fftw         :      5.59s CPU      5.62s WALL (   19434 calls)
     interpolate  :      0.00s CPU      0.00s WALL (       1 calls)
     davcio       :      0.03s CPU      0.08s WALL (      60 calls)
 
     Parallel routines
 
     PWSCF        :     12.09s CPU     12.48s WALL

 
   This run was terminated on:  23:16:21  26Jun2023            

=------------------------------------------------------------------------------=
   JOB DONE.
=------------------------------------------------------------------------------=
