
     Program PROJWFC v.7.1 starts on 26Jun2023 at 23:16:23 

     This program is part of the open-source Quantum ESPRESSO suite
     for quantum simulation of materials; please cite
         "P. Giannozzi et al., J. Phys.:Condens. Matter 21 395502 (2009);
         "P. Giannozzi et al., J. Phys.:Condens. Matter 29 465901 (2017);
         "P. Giannozzi et al., J. Chem. Phys. 152 154105 (2020);
          URL http://www.quantum-espresso.org", 
     in publications or presentations arising from this work. More details at
     http://www.quantum-espresso.org/quote

     Parallel version (MPI & OpenMP), running on      20 processor cores
     Number of MPI processes:                20
     Threads/MPI process:                     1

     MPI processes distributed on     1 nodes
     R & G space division:  proc/nbgrp/npool/nimage =      20
     235617 MiB available memory on the printing compute node when the environment starts
 

     Reading xml data from directory:

     ./tmp/c.save/

     IMPORTANT: XC functional enforced from input :
     Exchange-correlation= PBE
                           (   1   4   3   4   0   0   0)
     Any further DFT definition will be discarded
     Please, verify this is what you really want

 
     Parallelization info
     --------------------
     sticks:   dense  smooth     PW     G-vecs:    dense   smooth      PW
     Min          93      89     24                20481    19267    2770
     Max          94      90     25                20502    19300    2795
     Sum        1879    1789    499               409943   385631   55807
 
     Using Slab Decomposition
 

     Gaussian broadening (read from input): ngauss,degauss=   0    0.003000


     Calling projwave .... 
     Subspace diagonalization in iterative solution of the eigenvalue problem:
     one sub-group per band group will be used
     ELPA distributed-memory algorithm (size of sub-group:  4*  4 procs)

     linear algebra parallelized on  16 procs
 
  Problem Sizes 
  natomwfc =           18
  nx       =            5
  nbnd     =           20
  nkstot   =           30
  npwx     =         2478
  nkb      =           54
 

     --------------------- ATOM    1 ----------------------

     Orbital quantum number l = 0
     occupation matrix ns (before diag.):
       1.995
     eigenvalues:
       1.995
     eigenvectors (columns):
       1.000

     Orbital quantum number l = 1
     occupation matrix ns (before diag.):
       2.000  0.000 -0.000
       0.000  2.000  0.000
      -0.000  0.000  2.000
     eigenvalues:
       2.000  2.000  2.000
     eigenvectors (columns):
       1.000  0.000  0.000
       0.000  1.000  0.000
       0.000  0.000  1.000

     Orbital quantum number l = 2
     occupation matrix ns (before diag.):
       1.953 -0.000 -0.000 -0.000 -0.000
      -0.000  1.644 -0.000  0.000 -0.211
      -0.000 -0.000  1.644 -0.211 -0.000
      -0.000  0.000 -0.211  1.806  0.000
      -0.000 -0.211 -0.000  0.000  1.806
     eigenvalues:
       1.499  1.499  1.951  1.951  1.953
     eigenvectors (columns):
      -0.000  0.000  0.000 -0.000  1.000
       0.368  0.737 -0.536  0.184  0.000
      -0.737  0.368  0.184  0.536  0.000
      -0.507  0.253 -0.268 -0.780 -0.000
       0.253  0.507  0.780 -0.268 -0.000

     Orbital quantum number l = 0
     occupation matrix ns (before diag.):
       0.631
     eigenvalues:
       0.631
     eigenvectors (columns):
       1.000

     --------------------- ATOM    2 ----------------------

     Orbital quantum number l = 0
     occupation matrix ns (before diag.):
       1.943
     eigenvalues:
       1.943
     eigenvectors (columns):
       1.000

     Orbital quantum number l = 1
     occupation matrix ns (before diag.):
       1.786  0.000 -0.000
       0.000  1.702  0.000
      -0.000  0.000  1.702
     eigenvalues:
       1.786  1.702  1.702
     eigenvectors (columns):
       1.000  0.000  0.000
       0.000  1.000  0.000
       0.000  0.000  1.000

     --------------------- ATOM    3 ----------------------

     Orbital quantum number l = 0
     occupation matrix ns (before diag.):
       1.943
     eigenvalues:
       1.943
     eigenvectors (columns):
       1.000

     Orbital quantum number l = 1
     occupation matrix ns (before diag.):
       1.786  0.000 -0.000
       0.000  1.702  0.000
      -0.000  0.000  1.702
     eigenvalues:
       1.786  1.702  1.702
     eigenvectors (columns):
       1.000  0.000  0.000
       0.000  1.000  0.000
       0.000  0.000  1.000

     Rotating the orbitals to the diagonal representation of ns...

     Atomic states used for projection
     (read from pseudopotential files):

     state #   1: atom   1 (Ni ), wfc  1 (l=0 m= 1)
     state #   2: atom   1 (Ni ), wfc  2 (l=1 m= 1)
     state #   3: atom   1 (Ni ), wfc  2 (l=1 m= 2)
     state #   4: atom   1 (Ni ), wfc  2 (l=1 m= 3)
     state #   5: atom   1 (Ni ), wfc  3 (l=2 m= 1)
     state #   6: atom   1 (Ni ), wfc  3 (l=2 m= 2)
     state #   7: atom   1 (Ni ), wfc  3 (l=2 m= 3)
     state #   8: atom   1 (Ni ), wfc  3 (l=2 m= 4)
     state #   9: atom   1 (Ni ), wfc  3 (l=2 m= 5)
     state #  10: atom   1 (Ni ), wfc  4 (l=0 m= 1)
     state #  11: atom   2 (I  ), wfc  1 (l=0 m= 1)
     state #  12: atom   2 (I  ), wfc  2 (l=1 m= 1)
     state #  13: atom   2 (I  ), wfc  2 (l=1 m= 2)
     state #  14: atom   2 (I  ), wfc  2 (l=1 m= 3)
     state #  15: atom   3 (I  ), wfc  1 (l=0 m= 1)
     state #  16: atom   3 (I  ), wfc  2 (l=1 m= 1)
     state #  17: atom   3 (I  ), wfc  2 (l=1 m= 2)
     state #  18: atom   3 (I  ), wfc  2 (l=1 m= 3)

 k =   0.0000000000  0.0000000000  0.0000000000
==== e(   1) =  -104.63551 eV ==== 
     psi = 0.996*[#   1]+0.002*[#  12]+0.002*[#  16]
    |psi|^2 = 1.000
==== e(   2) =   -65.02962 eV ==== 
     psi = 0.999*[#   2]
    |psi|^2 = 1.000
==== e(   3) =   -65.02816 eV ==== 
     psi = 0.792*[#   3]+0.207*[#   4]
    |psi|^2 = 1.000
==== e(   4) =   -65.02816 eV ==== 
     psi = 0.792*[#   4]+0.207*[#   3]
    |psi|^2 = 1.000
==== e(   5) =   -15.75342 eV ==== 
     psi = 0.366*[#  11]+0.366*[#  15]+0.257*[#  10]+0.004*[#  12]+0.004*[#  16]
          +0.001*[#   1]
    |psi|^2 = 1.000
==== e(   6) =   -14.83055 eV ==== 
     psi = 0.495*[#  11]+0.495*[#  15]+0.003*[#  12]+0.003*[#  16]
    |psi|^2 = 0.997
==== e(   7) =    -6.73908 eV ==== 
     psi = 0.391*[#  12]+0.391*[#  16]+0.075*[#  10]+0.066*[#   9]+0.035*[#  11]
          +0.035*[#  15]+0.003*[#   1]
    |psi|^2 = 0.995
==== e(   8) =    -4.83559 eV ==== 
     psi = 0.324*[#   5]+0.172*[#  13]+0.172*[#  17]+0.158*[#   6]+0.063*[#   7]
          +0.051*[#  14]+0.051*[#  18]+0.002*[#   8]
    |psi|^2 = 0.991
==== e(   9) =    -4.83559 eV ==== 
     psi = 0.324*[#   6]+0.172*[#  14]+0.172*[#  18]+0.158*[#   5]+0.063*[#   8]
          +0.051*[#  13]+0.051*[#  17]+0.002*[#   7]
    |psi|^2 = 0.991
==== e(  10) =    -3.74111 eV ==== 
     psi = 0.494*[#  12]+0.494*[#  16]+0.003*[#  11]+0.003*[#  15]
    |psi|^2 = 0.995
==== e(  11) =    -3.25608 eV ==== 
     psi = 0.602*[#   8]+0.253*[#   7]+0.103*[#   6]+0.026*[#   5]
    |psi|^2 = 0.984
==== e(  12) =    -3.25608 eV ==== 
     psi = 0.602*[#   7]+0.253*[#   8]+0.103*[#   5]+0.026*[#   6]
    |psi|^2 = 0.984
==== e(  13) =    -3.00022 eV ==== 
     psi = 0.911*[#   9]+0.023*[#  10]+0.021*[#  12]+0.021*[#  16]+0.005*[#  11]
          +0.005*[#  15]
    |psi|^2 = 0.986
==== e(  14) =    -2.82999 eV ==== 
     psi = 0.369*[#  13]+0.369*[#  17]+0.123*[#  14]+0.123*[#  18]
    |psi|^2 = 0.985
==== e(  15) =    -2.82999 eV ==== 
     psi = 0.369*[#  14]+0.369*[#  18]+0.123*[#  13]+0.123*[#  17]
    |psi|^2 = 0.985
==== e(  16) =    -1.30614 eV ==== 
     psi = 0.273*[#   6]+0.201*[#  14]+0.201*[#  18]+0.107*[#   5]+0.075*[#  13]
          +0.075*[#  17]+0.063*[#   8]+0.003*[#   7]
    |psi|^2 = 0.998
==== e(  17) =    -1.30614 eV ==== 
     psi = 0.273*[#   5]+0.201*[#  13]+0.201*[#  17]+0.107*[#   6]+0.075*[#  14]
          +0.075*[#  18]+0.063*[#   7]+0.003*[#   8]
    |psi|^2 = 0.998
==== e(  18) =     1.84510 eV ==== 
     psi = 0.379*[#  10]+0.054*[#  11]+0.054*[#  15]+0.049*[#  12]+0.049*[#  16]
          +0.002*[#   9]
    |psi|^2 = 0.588
==== e(  19) =     2.57689 eV ==== 
     psi = 0.001*[#  11]+0.001*[#  15]
    |psi|^2 = 0.004
==== e(  20) =     2.72418 eV ==== 
 
    |psi|^2 = 0.000

 k =   0.0000000000  0.0721687836  0.0000000000
==== e(   1) =  -104.63551 eV ==== 
     psi = 0.996*[#   1]+0.002*[#  12]+0.002*[#  16]
    |psi|^2 = 1.000
==== e(   2) =   -65.02962 eV ==== 
     psi = 0.999*[#   2]
    |psi|^2 = 1.000
==== e(   3) =   -65.02818 eV ==== 
     psi = 1.000*[#   4]
    |psi|^2 = 1.000
==== e(   4) =   -65.02817 eV ==== 
     psi = 1.000*[#   3]
    |psi|^2 = 1.000
==== e(   5) =   -15.72337 eV ==== 
     psi = 0.369*[#  11]+0.369*[#  15]+0.250*[#  10]+0.004*[#  12]+0.004*[#  16]
          +0.001*[#   1]
    |psi|^2 = 1.000
==== e(   6) =   -14.81359 eV ==== 
     psi = 0.494*[#  11]+0.494*[#  15]+0.003*[#  12]+0.003*[#  16]
    |psi|^2 = 0.997
==== e(   7) =    -6.70854 eV ==== 
     psi = 0.389*[#  12]+0.389*[#  16]+0.078*[#  10]+0.064*[#   9]+0.035*[#  11]
          +0.035*[#  15]+0.003*[#   1]
    |psi|^2 = 0.995
==== e(   8) =    -4.93692 eV ==== 
     psi = 0.347*[#   5]+0.223*[#  14]+0.223*[#  18]+0.087*[#   6]+0.056*[#   8]
          +0.024*[#  12]+0.024*[#  16]+0.007*[#   7]
    |psi|^2 = 0.991
==== e(   9) =    -4.83403 eV ==== 
     psi = 0.384*[#   6]+0.226*[#  13]+0.226*[#  17]+0.096*[#   5]+0.054*[#   7]
          +0.006*[#   8]
    |psi|^2 = 0.991
==== e(  10) =    -3.67057 eV ==== 
     psi = 0.469*[#  12]+0.469*[#  16]+0.016*[#  14]+0.016*[#  18]+0.015*[#   5]
          +0.004*[#   6]+0.002*[#  11]+0.002*[#  15]
    |psi|^2 = 0.993
==== e(  11) =    -3.42319 eV ==== 
     psi = 0.405*[#   8]+0.170*[#  14]+0.170*[#  18]+0.077*[#   5]+0.075*[#   9]
          +0.048*[#   7]+0.019*[#   6]+0.010*[#  10]+0.003*[#  11]+0.003*[#  15]
          
    |psi|^2 = 0.983
==== e(  12) =    -3.34509 eV ==== 
     psi = 0.618*[#   7]+0.093*[#   6]+0.088*[#  13]+0.088*[#  17]+0.073*[#   8]
          +0.023*[#   5]
    |psi|^2 = 0.984
==== e(  13) =    -3.12189 eV ==== 
     psi = 0.453*[#   9]+0.275*[#   8]+0.073*[#  14]+0.073*[#  18]+0.032*[#   7]
          +0.027*[#   5]+0.022*[#  10]+0.007*[#   6]+0.006*[#  11]+0.006*[#  12]
          +0.006*[#  15]+0.006*[#  16]
    |psi|^2 = 0.984
==== e(  14) =    -2.78869 eV ==== 
     psi = 0.400*[#  13]+0.400*[#  17]+0.161*[#   7]+0.019*[#   8]+0.004*[#   6]
          +0.001*[#   5]
    |psi|^2 = 0.985
==== e(  15) =    -2.76480 eV ==== 
     psi = 0.386*[#   9]+0.231*[#  14]+0.231*[#  18]+0.086*[#   8]+0.020*[#  12]
          +0.020*[#  16]+0.010*[#   7]+0.002*[#   5]
    |psi|^2 = 0.988
==== e(  16) =    -1.46203 eV ==== 
     psi = 0.322*[#   5]+0.259*[#  14]+0.259*[#  18]+0.080*[#   6]+0.058*[#   8]
          +0.007*[#   7]+0.002*[#  11]+0.002*[#  15]
    |psi|^2 = 0.989
==== e(  17) =    -1.33499 eV ==== 
     psi = 0.311*[#   6]+0.276*[#  13]+0.276*[#  17]+0.078*[#   5]+0.049*[#   7]
          +0.006*[#   8]
    |psi|^2 = 0.996
==== e(  18) =     1.98603 eV ==== 
     psi = 0.348*[#  10]+0.046*[#  11]+0.046*[#  15]+0.043*[#  12]+0.043*[#  16]
          +0.007*[#  14]+0.007*[#  18]
    |psi|^2 = 0.543
==== e(  19) =     2.75855 eV ==== 
 
    |psi|^2 = 0.002
==== e(  20) =     2.81678 eV ==== 
     psi = 0.003*[#  14]+0.003*[#  18]+0.001*[#   5]
    |psi|^2 = 0.012

 k =   0.0000000000  0.1443375673  0.0000000000
==== e(   1) =  -104.63551 eV ==== 
     psi = 0.995*[#   1]+0.002*[#  12]+0.002*[#  16]
    |psi|^2 = 1.000
==== e(   2) =   -65.02961 eV ==== 
     psi = 0.999*[#   2]
    |psi|^2 = 1.000
==== e(   3) =   -65.02824 eV ==== 
     psi = 0.999*[#   4]
    |psi|^2 = 1.000
==== e(   4) =   -65.02818 eV ==== 
     psi = 0.999*[#   3]
    |psi|^2 = 1.000
==== e(   5) =   -15.63526 eV ==== 
     psi = 0.377*[#  11]+0.377*[#  15]+0.231*[#  10]+0.004*[#  12]+0.004*[#  16]
          +0.003*[#  14]+0.003*[#  18]
    |psi|^2 = 1.000
==== e(   6) =   -14.76506 eV ==== 
     psi = 0.492*[#  11]+0.492*[#  15]+0.003*[#  14]+0.003*[#  18]+0.003*[#   5]
          +0.002*[#  12]+0.002*[#  16]
    |psi|^2 = 0.998
==== e(   7) =    -6.62284 eV ==== 
     psi = 0.385*[#  12]+0.385*[#  16]+0.085*[#  10]+0.059*[#   9]+0.036*[#  11]
          +0.036*[#  15]+0.003*[#  14]+0.003*[#  18]+0.002*[#   1]
    |psi|^2 = 0.995
==== e(   8) =    -5.18420 eV ==== 
     psi = 0.270*[#   5]+0.239*[#  14]+0.239*[#  18]+0.067*[#   6]+0.056*[#   8]
          +0.055*[#  12]+0.055*[#  16]+0.007*[#   7]
    |psi|^2 = 0.990
==== e(   9) =    -4.82974 eV ==== 
     psi = 0.381*[#   6]+0.234*[#  13]+0.234*[#  17]+0.095*[#   5]+0.042*[#   7]
          +0.005*[#   8]
    |psi|^2 = 0.991
==== e(  10) =    -3.96500 eV ==== 
     psi = 0.305*[#  14]+0.305*[#  18]+0.115*[#   8]+0.096*[#   9]+0.070*[#   5]
          +0.030*[#  10]+0.017*[#   6]+0.014*[#   7]+0.011*[#  11]+0.011*[#  15]
          +0.004*[#  12]+0.004*[#  16]
    |psi|^2 = 0.982
==== e(  11) =    -3.53921 eV ==== 
     psi = 0.433*[#  12]+0.433*[#  16]+0.052*[#  14]+0.052*[#  18]+0.010*[#   5]
          +0.003*[#   8]+0.002*[#   6]
    |psi|^2 = 0.988
==== e(  12) =    -3.53572 eV ==== 
     psi = 0.443*[#   7]+0.193*[#  13]+0.193*[#  17]+0.081*[#   6]+0.052*[#   8]
          +0.020*[#   5]
    |psi|^2 = 0.983
==== e(  13) =    -3.17062 eV ==== 
     psi = 0.499*[#   8]+0.286*[#   9]+0.059*[#   7]+0.056*[#   5]+0.019*[#  14]
          +0.019*[#  18]+0.017*[#  10]+0.014*[#   6]+0.004*[#  11]+0.004*[#  15]
          +0.003*[#  12]+0.003*[#  16]
    |psi|^2 = 0.983
==== e(  14) =    -2.73876 eV ==== 
     psi = 0.372*[#   7]+0.284*[#  13]+0.284*[#  17]+0.044*[#   8]+0.002*[#   6]
          
    |psi|^2 = 0.986
==== e(  15) =    -2.73062 eV ==== 
     psi = 0.536*[#   9]+0.155*[#   8]+0.110*[#  14]+0.110*[#  18]+0.030*[#  12]
          +0.030*[#  16]+0.018*[#   7]
    |psi|^2 = 0.990
==== e(  16) =    -1.79506 eV ==== 
     psi = 0.381*[#   5]+0.209*[#  14]+0.209*[#  18]+0.095*[#   6]+0.052*[#   8]
          +0.009*[#  12]+0.009*[#  16]+0.006*[#   7]+0.005*[#  11]+0.005*[#  15]
          +0.003*[#   9]
    |psi|^2 = 0.983
==== e(  17) =    -1.40235 eV ==== 
     psi = 0.328*[#   6]+0.278*[#  13]+0.278*[#  17]+0.082*[#   5]+0.026*[#   7]
          +0.003*[#   8]
    |psi|^2 = 0.995
==== e(  18) =     2.30793 eV ==== 
     psi = 0.283*[#  10]+0.032*[#  12]+0.032*[#  16]+0.031*[#  11]+0.031*[#  15]
          +0.016*[#  14]+0.016*[#  18]
    |psi|^2 = 0.444
==== e(  19) =     2.86648 eV ==== 
     psi = 0.002*[#  10]
    |psi|^2 = 0.006
==== e(  20) =     3.08540 eV ==== 
     psi = 0.091*[#  10]+0.015*[#  14]+0.015*[#  18]+0.010*[#  11]+0.009*[#  12]
          +0.010*[#  15]+0.009*[#  16]+0.003*[#   9]
    |psi|^2 = 0.164

 k =   0.0000000000  0.2165063509  0.0000000000
==== e(   1) =  -104.63550 eV ==== 
     psi = 0.995*[#   1]+0.001*[#  12]+0.001*[#  16]
    |psi|^2 = 1.000
==== e(   2) =   -65.02959 eV ==== 
     psi = 0.999*[#   2]
    |psi|^2 = 1.000
==== e(   3) =   -65.02833 eV ==== 
     psi = 0.999*[#   4]
    |psi|^2 = 1.000
==== e(   4) =   -65.02821 eV ==== 
     psi = 0.999*[#   3]
    |psi|^2 = 1.000
==== e(   5) =   -15.49543 eV ==== 
     psi = 0.389*[#  11]+0.389*[#  15]+0.200*[#  10]+0.006*[#  14]+0.006*[#  18]
          +0.005*[#  12]+0.005*[#  16]
    |psi|^2 = 1.000
==== e(   6) =   -14.69220 eV ==== 
     psi = 0.490*[#  11]+0.490*[#  15]+0.005*[#   5]+0.004*[#  14]+0.004*[#  18]
          +0.002*[#  12]+0.002*[#  16]+0.001*[#   6]
    |psi|^2 = 0.998
==== e(   7) =    -6.50681 eV ==== 
     psi = 0.368*[#  12]+0.368*[#  16]+0.101*[#  10]+0.048*[#   9]+0.039*[#  11]
          +0.039*[#  15]+0.015*[#  14]+0.015*[#  18]+0.002*[#   1]+0.002*[#   8]
          
    |psi|^2 = 0.995
==== e(   8) =    -5.51331 eV ==== 
     psi = 0.280*[#  14]+0.280*[#  18]+0.177*[#   5]+0.068*[#  12]+0.068*[#  16]
          +0.056*[#   8]+0.044*[#   6]+0.007*[#   7]+0.002*[#  10]+0.002*[#  11]
          +0.002*[#  15]+0.001*[#   9]
    |psi|^2 = 0.986
==== e(   9) =    -4.82373 eV ==== 
     psi = 0.376*[#   6]+0.246*[#  13]+0.246*[#  17]+0.094*[#   5]+0.026*[#   7]
          +0.003*[#   8]
    |psi|^2 = 0.990
==== e(  10) =    -4.59996 eV ==== 
     psi = 0.318*[#  14]+0.318*[#  18]+0.091*[#   5]+0.079*[#   9]+0.040*[#   8]
          +0.035*[#  10]+0.025*[#  12]+0.025*[#  16]+0.023*[#   6]+0.013*[#  11]
          +0.013*[#  15]+0.005*[#   7]
    |psi|^2 = 0.984
==== e(  11) =    -3.75344 eV ==== 
     psi = 0.322*[#   7]+0.267*[#  13]+0.267*[#  17]+0.070*[#   6]+0.038*[#   8]
          +0.018*[#   5]
    |psi|^2 = 0.982
==== e(  12) =    -3.50464 eV ==== 
     psi = 0.386*[#  12]+0.386*[#  16]+0.104*[#  14]+0.104*[#  18]+0.001*[#   8]
          
    |psi|^2 = 0.985
==== e(  13) =    -3.19770 eV ==== 
     psi = 0.534*[#   8]+0.259*[#   9]+0.063*[#   7]+0.063*[#   5]+0.016*[#  10]
          +0.016*[#   6]+0.007*[#  14]+0.007*[#  18]+0.004*[#  12]+0.004*[#  16]
          +0.004*[#  11]+0.004*[#  15]
    |psi|^2 = 0.981
==== e(  14) =    -2.74243 eV ==== 
     psi = 0.532*[#   7]+0.195*[#  13]+0.195*[#  17]+0.063*[#   8]
    |psi|^2 = 0.987
==== e(  15) =    -2.73586 eV ==== 
     psi = 0.579*[#   9]+0.208*[#   8]+0.058*[#  14]+0.058*[#  18]+0.031*[#  12]
          +0.031*[#  16]+0.025*[#   7]+0.001*[#   5]
    |psi|^2 = 0.992
==== e(  16) =    -2.05274 eV ==== 
     psi = 0.451*[#   5]+0.129*[#  14]+0.129*[#  18]+0.113*[#   6]+0.046*[#  12]
          +0.046*[#  16]+0.035*[#   8]+0.016*[#   9]+0.009*[#  11]+0.009*[#  15]
          +0.004*[#   7]
    |psi|^2 = 0.986
==== e(  17) =    -1.46910 eV ==== 
     psi = 0.346*[#   6]+0.278*[#  13]+0.278*[#  17]+0.086*[#   5]+0.004*[#   7]
          
    |psi|^2 = 0.994
==== e(  18) =     2.60739 eV ==== 
     psi = 0.372*[#  10]+0.048*[#  14]+0.048*[#  18]+0.034*[#  12]+0.034*[#  16]
          +0.029*[#  11]+0.029*[#  15]+0.003*[#   8]+0.001*[#   9]
    |psi|^2 = 0.601
==== e(  19) =     2.71738 eV ==== 
     psi = 0.006*[#  10]+0.002*[#   9]
    |psi|^2 = 0.013
==== e(  20) =     3.06449 eV ==== 
     psi = 0.005*[#  10]+0.003*[#   8]
    |psi|^2 = 0.015

 k =   0.0000000000  0.2886751346  0.0000000000
==== e(   1) =  -104.63550 eV ==== 
     psi = 0.995*[#   1]+0.001*[#  12]+0.001*[#  14]+0.001*[#  16]+0.001*[#  18]
          
    |psi|^2 = 1.000
==== e(   2) =   -65.02958 eV ==== 
     psi = 0.999*[#   2]
    |psi|^2 = 1.000
==== e(   3) =   -65.02843 eV ==== 
     psi = 0.999*[#   4]
    |psi|^2 = 1.000
==== e(   4) =   -65.02823 eV ==== 
     psi = 0.999*[#   3]
    |psi|^2 = 1.000
==== e(   5) =   -15.31522 eV ==== 
     psi = 0.407*[#  11]+0.407*[#  15]+0.160*[#  10]+0.008*[#  14]+0.008*[#  18]
          +0.005*[#  12]+0.005*[#  16]
    |psi|^2 = 0.999
==== e(   6) =   -14.60736 eV ==== 
     psi = 0.488*[#  11]+0.488*[#  15]+0.008*[#   5]+0.004*[#  14]+0.004*[#  18]
          +0.002*[#   6]+0.001*[#  12]+0.001*[#  16]
    |psi|^2 = 0.998
==== e(   7) =    -6.44618 eV ==== 
     psi = 0.289*[#  12]+0.289*[#  16]+0.137*[#  10]+0.076*[#  14]+0.076*[#  18]
          +0.044*[#  11]+0.044*[#  15]+0.024*[#   9]+0.012*[#   8]+0.002*[#   1]
          +0.001*[#   7]
    |psi|^2 = 0.994
==== e(   8) =    -5.89086 eV ==== 
     psi = 0.315*[#  14]+0.315*[#  18]+0.089*[#  12]+0.089*[#  16]+0.088*[#   5]
          +0.046*[#   8]+0.022*[#   6]+0.009*[#   9]+0.005*[#   7]+0.002*[#  10]
          +0.001*[#  11]+0.001*[#  15]
    |psi|^2 = 0.983
==== e(   9) =    -5.09786 eV ==== 
     psi = 0.274*[#  14]+0.274*[#  18]+0.118*[#   5]+0.087*[#  12]+0.087*[#  16]
          +0.078*[#   9]+0.029*[#   6]+0.018*[#  10]+0.009*[#   8]+0.006*[#  11]
          +0.006*[#  15]+0.001*[#   7]
    |psi|^2 = 0.988
==== e(  10) =    -4.81714 eV ==== 
     psi = 0.370*[#   6]+0.258*[#  13]+0.258*[#  17]+0.092*[#   5]+0.010*[#   7]
          +0.001*[#   8]
    |psi|^2 = 0.990
==== e(  11) =    -3.96476 eV ==== 
     psi = 0.326*[#  13]+0.326*[#  17]+0.229*[#   7]+0.059*[#   6]+0.027*[#   8]
          +0.015*[#   5]
    |psi|^2 = 0.981
==== e(  12) =    -3.66883 eV ==== 
     psi = 0.320*[#  12]+0.320*[#  16]+0.135*[#  14]+0.135*[#  18]+0.039*[#   5]
          +0.020*[#   8]+0.010*[#   6]+0.002*[#   7]+0.001*[#  10]+0.001*[#   9]
          
    |psi|^2 = 0.986
==== e(  13) =    -3.22238 eV ==== 
     psi = 0.522*[#   8]+0.259*[#   9]+0.072*[#   5]+0.062*[#   7]+0.018*[#   6]
          +0.017*[#  10]+0.007*[#  12]+0.007*[#  16]+0.004*[#  14]+0.004*[#  18]
          +0.003*[#  11]+0.003*[#  15]
    |psi|^2 = 0.978
==== e(  14) =    -2.80127 eV ==== 
     psi = 0.646*[#   7]+0.127*[#  13]+0.127*[#  17]+0.076*[#   8]+0.009*[#   6]
          +0.002*[#   5]
    |psi|^2 = 0.988
==== e(  15) =    -2.76683 eV ==== 
     psi = 0.580*[#   9]+0.245*[#   8]+0.034*[#  12]+0.034*[#  16]+0.029*[#  14]
          +0.029*[#  18]+0.029*[#   7]+0.008*[#   5]+0.002*[#   6]
    |psi|^2 = 0.993
==== e(  16) =    -2.07831 eV ==== 
     psi = 0.457*[#   5]+0.114*[#   6]+0.110*[#  12]+0.110*[#  16]+0.062*[#  14]
          +0.062*[#  18]+0.036*[#   9]+0.018*[#   8]+0.009*[#  11]+0.009*[#  15]
          +0.002*[#   7]
    |psi|^2 = 0.989
==== e(  17) =    -1.51028 eV ==== 
     psi = 0.355*[#   6]+0.275*[#  13]+0.275*[#  17]+0.089*[#   5]+0.001*[#   7]
          
    |psi|^2 = 0.995
==== e(  18) =     2.13378 eV ==== 
     psi = 0.284*[#  10]+0.054*[#  14]+0.054*[#  18]+0.019*[#  12]+0.019*[#  16]
          +0.015*[#  11]+0.015*[#  15]+0.004*[#   8]+0.002*[#   9]
    |psi|^2 = 0.466
==== e(  19) =     2.99498 eV ==== 
     psi = 0.132*[#  10]+0.012*[#  12]+0.012*[#  16]+0.009*[#  11]+0.009*[#  15]
          +0.008*[#  14]+0.008*[#  18]+0.005*[#   8]
    |psi|^2 = 0.196
==== e(  20) =     3.28640 eV ==== 
     psi = 0.003*[#   8]+0.002*[#  10]+0.001*[#   5]+0.001*[#   9]
    |psi|^2 = 0.011

 k =   0.0000000000  0.3608439182  0.0000000000
==== e(   1) =  -104.63550 eV ==== 
     psi = 0.995*[#   1]+0.002*[#  14]+0.002*[#  18]
    |psi|^2 = 1.000
==== e(   2) =   -65.02956 eV ==== 
     psi = 0.999*[#   2]
    |psi|^2 = 1.000
==== e(   3) =   -65.02853 eV ==== 
     psi = 0.998*[#   4]
    |psi|^2 = 1.000
==== e(   4) =   -65.02826 eV ==== 
     psi = 0.999*[#   3]
    |psi|^2 = 1.000
==== e(   5) =   -15.11200 eV ==== 
     psi = 0.428*[#  11]+0.428*[#  15]+0.115*[#  10]+0.009*[#  14]+0.009*[#  18]
          +0.004*[#  12]+0.004*[#  16]
    |psi|^2 = 0.999
==== e(   6) =   -14.52777 eV ==== 
     psi = 0.488*[#  11]+0.488*[#  15]+0.012*[#   5]+0.003*[#   6]+0.003*[#  14]
          +0.003*[#  18]+0.002*[#  10]
    |psi|^2 = 0.999
==== e(   7) =    -6.66790 eV ==== 
     psi = 0.248*[#  14]+0.248*[#  18]+0.167*[#  10]+0.107*[#  12]+0.107*[#  16]
          +0.036*[#  11]+0.036*[#  15]+0.035*[#   8]+0.004*[#   7]+0.002*[#   1]
          +0.001*[#   9]
    |psi|^2 = 0.991
==== e(   8) =    -6.16670 eV ==== 
     psi = 0.289*[#  14]+0.289*[#  18]+0.150*[#  12]+0.150*[#  16]+0.048*[#   5]
          +0.014*[#   8]+0.012*[#   6]+0.010*[#   9]+0.007*[#  11]+0.007*[#  15]
          +0.006*[#  10]+0.002*[#   7]
    |psi|^2 = 0.985
==== e(   9) =    -5.28150 eV ==== 
     psi = 0.208*[#  12]+0.208*[#  16]+0.176*[#  14]+0.176*[#  18]+0.107*[#   5]
          +0.084*[#   9]+0.027*[#   6]+0.001*[#  10]
    |psi|^2 = 0.989
==== e(  10) =    -4.81061 eV ==== 
     psi = 0.367*[#   6]+0.266*[#  13]+0.266*[#  17]+0.092*[#   5]
    |psi|^2 = 0.991
==== e(  11) =    -4.14975 eV ==== 
     psi = 0.378*[#  13]+0.378*[#  17]+0.150*[#   7]+0.045*[#   6]+0.018*[#   8]
          +0.011*[#   5]
    |psi|^2 = 0.980
==== e(  12) =    -3.94645 eV ==== 
     psi = 0.287*[#  12]+0.287*[#  16]+0.122*[#  14]+0.122*[#  18]+0.097*[#   5]
          +0.037*[#   8]+0.024*[#   6]+0.004*[#   7]+0.003*[#  10]+0.002*[#  11]
          +0.002*[#  15]+0.001*[#   9]
    |psi|^2 = 0.989
==== e(  13) =    -3.24460 eV ==== 
     psi = 0.492*[#   8]+0.276*[#   9]+0.085*[#   5]+0.058*[#   7]+0.021*[#   6]
          +0.017*[#  10]+0.008*[#  12]+0.008*[#  16]+0.003*[#  11]+0.003*[#  15]
          +0.002*[#  14]+0.002*[#  18]
    |psi|^2 = 0.976
==== e(  14) =    -2.88714 eV ==== 
     psi = 0.724*[#   7]+0.085*[#   8]+0.074*[#  13]+0.074*[#  17]+0.026*[#   6]
          +0.007*[#   5]
    |psi|^2 = 0.990
==== e(  15) =    -2.81365 eV ==== 
     psi = 0.571*[#   9]+0.277*[#   8]+0.034*[#  12]+0.034*[#  16]+0.033*[#   7]
          +0.015*[#  14]+0.015*[#  18]+0.009*[#   5]+0.004*[#  10]+0.002*[#   6]
          
    |psi|^2 = 0.993
==== e(  16) =    -1.95345 eV ==== 
     psi = 0.433*[#   5]+0.152*[#  12]+0.152*[#  16]+0.108*[#   6]+0.045*[#   9]
          +0.035*[#  14]+0.035*[#  18]+0.012*[#   8]+0.008*[#  11]+0.008*[#  15]
          +0.001*[#   7]
    |psi|^2 = 0.990
==== e(  17) =    -1.52643 eV ==== 
     psi = 0.355*[#   6]+0.268*[#  13]+0.268*[#  17]+0.089*[#   5]+0.014*[#   7]
          +0.002*[#   8]
    |psi|^2 = 0.995
==== e(  18) =     1.67586 eV ==== 
     psi = 0.367*[#  10]+0.067*[#  14]+0.067*[#  18]+0.018*[#  12]+0.018*[#  16]
          +0.013*[#  11]+0.013*[#  15]+0.007*[#   8]+0.001*[#   1]
    |psi|^2 = 0.574
==== e(  19) =     3.14429 eV ==== 
     psi = 0.100*[#  10]+0.009*[#   8]+0.009*[#  12]+0.009*[#  16]+0.006*[#  14]
          +0.006*[#  18]+0.005*[#  11]+0.005*[#  15]+0.001*[#   7]
    |psi|^2 = 0.151
==== e(  20) =     3.55224 eV ==== 
     psi = 0.019*[#  10]+0.003*[#  14]+0.003*[#  18]+0.002*[#   5]+0.002*[#   8]
          +0.002*[#  12]+0.002*[#  16]+0.001*[#   9]
    |psi|^2 = 0.036

 k =   0.0000000000  0.4330127019  0.0000000000
==== e(   1) =  -104.63549 eV ==== 
     psi = 0.995*[#   1]+0.002*[#  14]+0.002*[#  18]
    |psi|^2 = 1.000
==== e(   2) =   -65.02954 eV ==== 
     psi = 0.999*[#   2]
    |psi|^2 = 1.000
==== e(   3) =   -65.02862 eV ==== 
     psi = 0.998*[#   4]
    |psi|^2 = 1.000
==== e(   4) =   -65.02828 eV ==== 
     psi = 0.999*[#   3]
    |psi|^2 = 1.000
==== e(   5) =   -14.91021 eV ==== 
     psi = 0.453*[#  11]+0.453*[#  15]+0.068*[#  10]+0.007*[#  14]+0.007*[#  18]
          +0.004*[#  12]+0.004*[#  16]+0.001*[#   5]
    |psi|^2 = 0.999
==== e(   6) =   -14.47350 eV ==== 
     psi = 0.486*[#  11]+0.486*[#  15]+0.014*[#   5]+0.006*[#  10]+0.004*[#   6]
          +0.001*[#  14]+0.001*[#  18]
    |psi|^2 = 0.999
==== e(   7) =    -7.06439 eV ==== 
     psi = 0.318*[#  14]+0.318*[#  18]+0.179*[#  10]+0.046*[#  12]+0.046*[#  16]
          +0.036*[#   8]+0.021*[#  11]+0.021*[#  15]+0.004*[#   7]+0.002*[#   1]
          
    |psi|^2 = 0.992
==== e(   8) =    -6.35126 eV ==== 
     psi = 0.341*[#  14]+0.341*[#  18]+0.119*[#  12]+0.119*[#  16]+0.028*[#   5]
          +0.009*[#  10]+0.008*[#  11]+0.008*[#  15]+0.007*[#   6]+0.003*[#   8]
          +0.002*[#   9]
    |psi|^2 = 0.986
==== e(   9) =    -5.17824 eV ==== 
     psi = 0.297*[#  12]+0.297*[#  16]+0.102*[#   5]+0.093*[#  14]+0.093*[#  18]
          +0.078*[#   9]+0.026*[#   6]+0.002*[#   8]+0.001*[#  11]+0.001*[#  15]
          
    |psi|^2 = 0.989
==== e(  10) =    -4.80419 eV ==== 
     psi = 0.369*[#   6]+0.264*[#  13]+0.264*[#  17]+0.092*[#   5]+0.004*[#   7]
          
    |psi|^2 = 0.992
==== e(  11) =    -4.29441 eV ==== 
     psi = 0.427*[#  13]+0.427*[#  17]+0.080*[#   7]+0.027*[#   6]+0.009*[#   8]
          +0.007*[#   5]
    |psi|^2 = 0.977
==== e(  12) =    -4.22064 eV ==== 
     psi = 0.293*[#  12]+0.293*[#  16]+0.123*[#   5]+0.096*[#  14]+0.096*[#  18]
          +0.040*[#   8]+0.031*[#   6]+0.005*[#   7]+0.004*[#  10]+0.003*[#   9]
          +0.002*[#  11]+0.002*[#  15]
    |psi|^2 = 0.990
==== e(  13) =    -3.26331 eV ==== 
     psi = 0.451*[#   8]+0.305*[#   9]+0.098*[#   5]+0.053*[#   7]+0.025*[#   6]
          +0.016*[#  10]+0.009*[#  12]+0.009*[#  16]+0.003*[#  11]+0.003*[#  15]
          +0.002*[#  14]+0.002*[#  18]
    |psi|^2 = 0.975
==== e(  14) =    -2.96848 eV ==== 
     psi = 0.775*[#   7]+0.091*[#   8]+0.045*[#   6]+0.035*[#  13]+0.035*[#  17]
          +0.011*[#   5]
    |psi|^2 = 0.993
==== e(  15) =    -2.87842 eV ==== 
     psi = 0.548*[#   9]+0.321*[#   8]+0.038*[#   7]+0.024*[#  12]+0.024*[#  16]
          +0.011*[#  10]+0.010*[#   5]+0.007*[#  14]+0.007*[#  18]+0.002*[#   6]
          
    |psi|^2 = 0.993
==== e(  16) =    -1.80744 eV ==== 
     psi = 0.416*[#   5]+0.168*[#  12]+0.168*[#  16]+0.104*[#   6]+0.052*[#   9]
          +0.029*[#  14]+0.029*[#  18]+0.009*[#   8]+0.007*[#  11]+0.007*[#  15]
          +0.002*[#  10]+0.001*[#   7]
    |psi|^2 = 0.992
==== e(  17) =    -1.52899 eV ==== 
     psi = 0.352*[#   6]+0.261*[#  13]+0.261*[#  17]+0.088*[#   5]+0.031*[#   7]
          +0.004*[#   8]
    |psi|^2 = 0.996
==== e(  18) =     1.33211 eV ==== 
     psi = 0.460*[#  10]+0.078*[#  14]+0.078*[#  18]+0.018*[#  12]+0.018*[#  16]
          +0.012*[#   8]+0.011*[#  11]+0.011*[#  15]+0.002*[#   1]+0.001*[#   5]
          +0.001*[#   7]
    |psi|^2 = 0.692
==== e(  19) =     3.13678 eV ==== 
     psi = 0.060*[#  10]+0.007*[#  12]+0.007*[#  16]+0.007*[#   8]+0.003*[#  14]
          +0.003*[#  18]+0.002*[#  11]+0.002*[#  15]
    |psi|^2 = 0.094
==== e(  20) =     3.59563 eV ==== 
     psi = 0.005*[#   8]+0.003*[#  14]+0.003*[#  18]+0.003*[#  10]+0.002*[#   9]
          
    |psi|^2 = 0.018

 k =   0.0000000000  0.5051814855  0.0000000000
==== e(   1) =  -104.63549 eV ==== 
     psi = 0.995*[#   1]+0.002*[#  14]+0.002*[#  18]
    |psi|^2 = 1.000
==== e(   2) =   -65.02953 eV ==== 
     psi = 0.998*[#   2]
    |psi|^2 = 1.000
==== e(   3) =   -65.02868 eV ==== 
     psi = 0.998*[#   4]
    |psi|^2 = 1.000
==== e(   4) =   -65.02829 eV ==== 
     psi = 0.999*[#   3]
    |psi|^2 = 1.000
==== e(   5) =   -14.74345 eV ==== 
     psi = 0.477*[#  11]+0.477*[#  15]+0.026*[#  10]+0.004*[#  14]+0.004*[#  18]
          +0.004*[#  12]+0.004*[#  16]+0.001*[#   5]
    |psi|^2 = 0.998
==== e(   6) =   -14.45948 eV ==== 
     psi = 0.479*[#  11]+0.479*[#  15]+0.018*[#  10]+0.017*[#   5]+0.004*[#   6]
          
    |psi|^2 = 0.999
==== e(   7) =    -7.36006 eV ==== 
     psi = 0.336*[#  14]+0.336*[#  18]+0.194*[#  10]+0.033*[#   8]+0.032*[#  12]
          +0.032*[#  16]+0.011*[#  11]+0.011*[#  15]+0.004*[#   7]+0.002*[#   1]
          +0.002*[#   5]+0.001*[#   9]
    |psi|^2 = 0.994
==== e(   8) =    -6.49379 eV ==== 
     psi = 0.384*[#  14]+0.384*[#  18]+0.096*[#  12]+0.096*[#  16]+0.008*[#   5]
          +0.006*[#  11]+0.006*[#  15]+0.003*[#  10]+0.002*[#   6]
    |psi|^2 = 0.986
==== e(   9) =    -4.96680 eV ==== 
     psi = 0.313*[#  12]+0.313*[#  16]+0.140*[#   5]+0.064*[#   9]+0.052*[#  14]
          +0.052*[#  18]+0.035*[#   6]+0.013*[#   8]+0.002*[#  11]+0.002*[#  15]
          +0.002*[#   7]
    |psi|^2 = 0.989
==== e(  10) =    -4.79844 eV ==== 
     psi = 0.376*[#   6]+0.252*[#  13]+0.252*[#  17]+0.094*[#   5]+0.018*[#   7]
          +0.002*[#   8]
    |psi|^2 = 0.994
==== e(  11) =    -4.45432 eV ==== 
     psi = 0.332*[#  12]+0.332*[#  16]+0.096*[#   5]+0.081*[#  14]+0.081*[#  18]
          +0.026*[#   8]+0.024*[#   6]+0.005*[#   9]+0.003*[#   7]+0.002*[#  10]
          +0.002*[#  11]+0.002*[#  15]
    |psi|^2 = 0.988
==== e(  12) =    -4.38772 eV ==== 
     psi = 0.468*[#  13]+0.468*[#  17]+0.023*[#   7]+0.009*[#   6]+0.003*[#   8]
          +0.002*[#   5]
    |psi|^2 = 0.975
==== e(  13) =    -3.27705 eV ==== 
     psi = 0.406*[#   8]+0.343*[#   9]+0.111*[#   5]+0.048*[#   7]+0.028*[#   6]
          +0.013*[#  10]+0.009*[#  12]+0.009*[#  16]+0.003*[#  11]+0.003*[#  15]
          +0.001*[#  14]+0.001*[#  18]
    |psi|^2 = 0.974
==== e(  14) =    -3.02408 eV ==== 
     psi = 0.806*[#   7]+0.095*[#   8]+0.059*[#   6]+0.015*[#   5]+0.010*[#  13]
          +0.010*[#  17]
    |psi|^2 = 0.994
==== e(  15) =    -2.94369 eV ==== 
     psi = 0.514*[#   9]+0.374*[#   8]+0.044*[#   7]+0.022*[#  10]+0.011*[#   5]
          +0.009*[#  12]+0.009*[#  16]+0.003*[#  14]+0.003*[#  18]+0.003*[#   6]
          
    |psi|^2 = 0.993
==== e(  16) =    -1.70649 eV ==== 
     psi = 0.407*[#   5]+0.170*[#  12]+0.170*[#  16]+0.102*[#   6]+0.059*[#   9]
          +0.030*[#  14]+0.030*[#  18]+0.008*[#   8]+0.006*[#  11]+0.006*[#  15]
          +0.005*[#  10]
    |psi|^2 = 0.994
==== e(  17) =    -1.52734 eV ==== 
     psi = 0.350*[#   6]+0.255*[#  13]+0.255*[#  17]+0.087*[#   5]+0.044*[#   7]
          +0.005*[#   8]
    |psi|^2 = 0.996
==== e(  18) =     1.12908 eV ==== 
     psi = 0.532*[#  10]+0.084*[#  14]+0.084*[#  18]+0.019*[#  12]+0.019*[#  16]
          +0.017*[#   8]+0.010*[#  11]+0.010*[#  15]+0.003*[#   5]+0.002*[#   1]
          +0.002*[#   7]
    |psi|^2 = 0.782
==== e(  19) =     3.06178 eV ==== 
     psi = 0.017*[#  10]+0.005*[#  12]+0.005*[#  16]+0.002*[#   8]+0.001*[#  14]
          +0.001*[#  18]
    |psi|^2 = 0.034
==== e(  20) =     3.64470 eV ==== 
     psi = 0.009*[#   8]+0.004*[#   9]+0.002*[#  14]+0.002*[#  18]+0.001*[#   7]
          
    |psi|^2 = 0.019

 k =   0.0000000000 -0.5773502692  0.0000000000
==== e(   1) =  -104.63549 eV ==== 
     psi = 0.995*[#   1]+0.002*[#  14]+0.002*[#  18]
    |psi|^2 = 1.000
==== e(   2) =   -65.02953 eV ==== 
     psi = 0.998*[#   2]
    |psi|^2 = 1.000
==== e(   3) =   -65.02870 eV ==== 
     psi = 0.998*[#   4]
    |psi|^2 = 1.000
==== e(   4) =   -65.02830 eV ==== 
     psi = 0.999*[#   3]
    |psi|^2 = 1.000
==== e(   5) =   -14.66860 eV ==== 
     psi = 0.493*[#  11]+0.493*[#  15]+0.004*[#  12]+0.004*[#  16]+0.002*[#  14]
          +0.002*[#  18]
    |psi|^2 = 0.998
==== e(   6) =   -14.46881 eV ==== 
     psi = 0.471*[#  11]+0.471*[#  15]+0.032*[#  10]+0.019*[#   5]+0.005*[#   6]
          +0.001*[#  14]+0.001*[#  18]
    |psi|^2 = 1.000
==== e(   7) =    -7.46608 eV ==== 
     psi = 0.340*[#  14]+0.340*[#  18]+0.201*[#  10]+0.032*[#   8]+0.029*[#  12]
          +0.029*[#  16]+0.007*[#  11]+0.007*[#  15]+0.004*[#   7]+0.003*[#   5]
          +0.002*[#   1]+0.001*[#   9]
    |psi|^2 = 0.995
==== e(   8) =    -6.54711 eV ==== 
     psi = 0.398*[#  14]+0.398*[#  18]+0.089*[#  12]+0.089*[#  16]+0.005*[#  11]
          +0.005*[#  15]
    |psi|^2 = 0.986
==== e(   9) =    -4.81278 eV ==== 
     psi = 0.268*[#  12]+0.268*[#  16]+0.239*[#   5]+0.064*[#   9]+0.060*[#   6]
          +0.036*[#   8]+0.023*[#  14]+0.023*[#  18]+0.004*[#   7]+0.003*[#  11]
          +0.003*[#  15]
    |psi|^2 = 0.992
==== e(  10) =    -4.79586 eV ==== 
     psi = 0.381*[#   6]+0.245*[#  13]+0.245*[#  17]+0.095*[#   5]+0.026*[#   7]
          +0.003*[#   8]
    |psi|^2 = 0.995
==== e(  11) =    -4.60117 eV ==== 
     psi = 0.396*[#  12]+0.396*[#  16]+0.093*[#  14]+0.093*[#  18]+0.002*[#  11]
          +0.002*[#  15]
    |psi|^2 = 0.983
==== e(  12) =    -4.42030 eV ==== 
     psi = 0.486*[#  13]+0.486*[#  17]
    |psi|^2 = 0.974
==== e(  13) =    -3.28257 eV ==== 
     psi = 0.382*[#   8]+0.365*[#   9]+0.116*[#   5]+0.045*[#   7]+0.029*[#   6]
          +0.012*[#  10]+0.008*[#  12]+0.008*[#  16]+0.003*[#  11]+0.003*[#  15]
          +0.001*[#  14]+0.001*[#  18]
    |psi|^2 = 0.974
==== e(  14) =    -3.04359 eV ==== 
     psi = 0.817*[#   7]+0.096*[#   8]+0.064*[#   6]+0.016*[#   5]+0.001*[#  13]
          +0.001*[#  17]
    |psi|^2 = 0.995
==== e(  15) =    -2.97245 eV ==== 
     psi = 0.495*[#   9]+0.401*[#   8]+0.047*[#   7]+0.029*[#  10]+0.012*[#   5]
          +0.003*[#   6]+0.002*[#  14]+0.002*[#  18]+0.001*[#  12]+0.001*[#  16]
          
    |psi|^2 = 0.994
==== e(  16) =    -1.67201 eV ==== 
     psi = 0.405*[#   5]+0.169*[#  12]+0.169*[#  16]+0.101*[#   6]+0.062*[#   9]
          +0.031*[#  14]+0.031*[#  18]+0.007*[#  10]+0.007*[#   8]+0.006*[#  11]
          +0.006*[#  15]
    |psi|^2 = 0.995
==== e(  17) =    -1.52632 eV ==== 
     psi = 0.349*[#   6]+0.253*[#  13]+0.253*[#  17]+0.087*[#   5]+0.048*[#   7]
          +0.006*[#   8]
    |psi|^2 = 0.996
==== e(  18) =     1.06395 eV ==== 
     psi = 0.559*[#  10]+0.086*[#  14]+0.086*[#  18]+0.019*[#  12]+0.019*[#  16]
          +0.019*[#   8]+0.009*[#  11]+0.009*[#  15]+0.004*[#   5]+0.002*[#   1]
          +0.002*[#   7]+0.001*[#   6]
    |psi|^2 = 0.816
==== e(  19) =     3.02199 eV ==== 
     psi = 0.005*[#  12]+0.005*[#  16]
    |psi|^2 = 0.011
==== e(  20) =     3.81790 eV ==== 
     psi = 0.014*[#   8]+0.007*[#   9]+0.002*[#  12]+0.002*[#  16]+0.002*[#   7]
          
    |psi|^2 = 0.028

 k =   0.0625000000  0.1082531755  0.0000000000
==== e(   1) =  -104.63551 eV ==== 
     psi = 0.995*[#   1]+0.002*[#  12]+0.002*[#  16]
    |psi|^2 = 1.000
==== e(   2) =   -65.02961 eV ==== 
     psi = 0.999*[#   2]
    |psi|^2 = 1.000
==== e(   3) =   -65.02822 eV ==== 
     psi = 0.750*[#   4]+0.250*[#   3]
    |psi|^2 = 1.000
==== e(   4) =   -65.02818 eV ==== 
     psi = 0.750*[#   3]+0.250*[#   4]
    |psi|^2 = 1.000
==== e(   5) =   -15.66429 eV ==== 
     psi = 0.374*[#  11]+0.374*[#  15]+0.237*[#  10]+0.004*[#  12]+0.004*[#  16]
          +0.002*[#  14]+0.002*[#  18]
    |psi|^2 = 1.000
==== e(   6) =   -14.78083 eV ==== 
     psi = 0.493*[#  11]+0.493*[#  15]+0.003*[#  12]+0.003*[#  16]+0.002*[#   6]
          +0.002*[#  14]+0.002*[#  18]
    |psi|^2 = 0.998
==== e(   7) =    -6.65027 eV ==== 
     psi = 0.387*[#  12]+0.387*[#  16]+0.082*[#  10]+0.061*[#   9]+0.036*[#  11]
          +0.036*[#  15]+0.002*[#   1]+0.001*[#  14]+0.001*[#  18]
    |psi|^2 = 0.995
==== e(   8) =    -5.10511 eV ==== 
     psi = 0.255*[#   6]+0.174*[#  14]+0.174*[#  18]+0.111*[#   5]+0.060*[#   8]
          +0.058*[#  13]+0.058*[#  17]+0.048*[#  12]+0.048*[#  16]+0.002*[#   7]
          
    |psi|^2 = 0.990
==== e(   9) =    -4.83449 eV ==== 
     psi = 0.331*[#   5]+0.174*[#  13]+0.174*[#  17]+0.145*[#   6]+0.058*[#  14]
          +0.058*[#  18]+0.049*[#   7]+0.002*[#   8]
    |psi|^2 = 0.991
==== e(  10) =    -3.77495 eV ==== 
     psi = 0.219*[#  14]+0.219*[#  18]+0.168*[#   7]+0.112*[#   9]+0.078*[#  13]
          +0.078*[#  17]+0.036*[#   5]+0.027*[#  10]+0.016*[#   6]+0.010*[#  11]
          +0.010*[#  15]+0.006*[#   8]+0.002*[#  12]+0.002*[#  16]
    |psi|^2 = 0.982
==== e(  11) =    -3.57447 eV ==== 
     psi = 0.415*[#  12]+0.415*[#  16]+0.035*[#   6]+0.027*[#  14]+0.027*[#  18]
          +0.018*[#  13]+0.018*[#  17]+0.015*[#   5]+0.013*[#   8]+0.002*[#  11]
          +0.002*[#  15]
    |psi|^2 = 0.990
==== e(  12) =    -3.51830 eV ==== 
     psi = 0.474*[#   8]+0.113*[#  13]+0.113*[#  17]+0.082*[#   6]+0.045*[#  14]
          +0.045*[#  18]+0.036*[#   5]+0.027*[#  12]+0.027*[#  16]+0.018*[#   7]
          
    |psi|^2 = 0.981
==== e(  13) =    -3.14904 eV ==== 
     psi = 0.547*[#   7]+0.294*[#   9]+0.036*[#   5]+0.021*[#   8]+0.016*[#   6]
          +0.016*[#  10]+0.015*[#  14]+0.015*[#  18]+0.005*[#  13]+0.005*[#  17]
          +0.004*[#  11]+0.004*[#  15]+0.004*[#  12]+0.004*[#  16]
    |psi|^2 = 0.985
==== e(  14) =    -2.74890 eV ==== 
     psi = 0.352*[#   8]+0.223*[#  13]+0.223*[#  17]+0.085*[#  14]+0.085*[#  18]
          +0.013*[#   7]+0.002*[#   6]
    |psi|^2 = 0.986
==== e(  15) =    -2.73534 eV ==== 
     psi = 0.514*[#   9]+0.146*[#   7]+0.097*[#  14]+0.097*[#  18]+0.036*[#  13]
          +0.036*[#  17]+0.028*[#  12]+0.028*[#  16]+0.006*[#   8]+0.002*[#   5]
          
    |psi|^2 = 0.990
==== e(  16) =    -1.67031 eV ==== 
     psi = 0.310*[#   6]+0.157*[#  14]+0.157*[#  18]+0.136*[#   5]+0.079*[#  13]
          +0.079*[#  17]+0.049*[#   8]+0.004*[#  12]+0.004*[#  16]+0.004*[#  11]
          +0.004*[#  15]+0.002*[#   7]
    |psi|^2 = 0.984
==== e(  17) =    -1.41593 eV ==== 
     psi = 0.284*[#   5]+0.193*[#  13]+0.193*[#  17]+0.124*[#   6]+0.078*[#  14]
          +0.078*[#  18]+0.040*[#   7]+0.002*[#   8]
    |psi|^2 = 0.992
==== e(  18) =     2.21573 eV ==== 
     psi = 0.299*[#  10]+0.035*[#  11]+0.035*[#  15]+0.035*[#  12]+0.035*[#  16]
          +0.011*[#  14]+0.011*[#  18]+0.004*[#  13]+0.004*[#  17]
    |psi|^2 = 0.469
==== e(  19) =     2.83468 eV ==== 
 
    |psi|^2 = 0.002
==== e(  20) =     3.18890 eV ==== 
     psi = 0.004*[#  14]+0.004*[#  18]+0.002*[#  13]+0.002*[#  17]+0.001*[#   6]
          
    |psi|^2 = 0.017

 k =   0.0625000000  0.1804219591  0.0000000000
==== e(   1) =  -104.63550 eV ==== 
     psi = 0.995*[#   1]+0.002*[#  12]+0.002*[#  16]
    |psi|^2 = 1.000
==== e(   2) =   -65.02960 eV ==== 
     psi = 0.999*[#   2]
    |psi|^2 = 1.000
==== e(   3) =   -65.02829 eV ==== 
     psi = 0.901*[#   4]+0.098*[#   3]
    |psi|^2 = 1.000
==== e(   4) =   -65.02820 eV ==== 
     psi = 0.901*[#   3]+0.098*[#   4]
    |psi|^2 = 1.000
==== e(   5) =   -15.55026 eV ==== 
     psi = 0.384*[#  11]+0.384*[#  15]+0.212*[#  10]+0.004*[#  12]+0.004*[#  16]
          +0.004*[#  14]+0.004*[#  18]
    |psi|^2 = 1.000
==== e(   6) =   -14.72003 eV ==== 
     psi = 0.490*[#  11]+0.490*[#  15]+0.003*[#  14]+0.003*[#  18]+0.003*[#   6]
          +0.003*[#   5]+0.002*[#  12]+0.002*[#  16]
    |psi|^2 = 0.998
==== e(   7) =    -6.54766 eV ==== 
     psi = 0.377*[#  12]+0.377*[#  16]+0.093*[#  10]+0.053*[#   9]+0.037*[#  11]
          +0.037*[#  15]+0.007*[#  14]+0.007*[#  18]+0.002*[#   1]
    |psi|^2 = 0.995
==== e(   8) =    -5.37587 eV ==== 
     psi = 0.235*[#  14]+0.235*[#  18]+0.136*[#   6]+0.136*[#   5]+0.065*[#  12]
          +0.065*[#  16]+0.063*[#   8]+0.025*[#  13]+0.025*[#  17]+0.001*[#  11]
          +0.001*[#  15]
    |psi|^2 = 0.988
==== e(   9) =    -4.83910 eV ==== 
     psi = 0.234*[#   6]+0.233*[#   5]+0.219*[#  13]+0.219*[#  17]+0.034*[#   7]
          +0.025*[#  14]+0.025*[#  18]
    |psi|^2 = 0.990
==== e(  10) =    -4.34874 eV ==== 
     psi = 0.299*[#  14]+0.299*[#  18]+0.091*[#   9]+0.058*[#   5]+0.049*[#   7]
          +0.038*[#  10]+0.034*[#  13]+0.034*[#  17]+0.024*[#   8]+0.014*[#  12]
          +0.014*[#  16]+0.014*[#  11]+0.014*[#  15]
    |psi|^2 = 0.982
==== e(  11) =    -3.75119 eV ==== 
     psi = 0.246*[#   8]+0.216*[#  13]+0.216*[#  17]+0.143*[#   6]+0.104*[#   7]
          +0.020*[#   5]+0.016*[#  14]+0.016*[#  18]+0.002*[#   9]
    |psi|^2 = 0.981
==== e(  12) =    -3.49052 eV ==== 
     psi = 0.407*[#  12]+0.407*[#  16]+0.075*[#  14]+0.075*[#  18]+0.010*[#  13]
          +0.010*[#  17]+0.002*[#   6]
    |psi|^2 = 0.986
==== e(  13) =    -3.16285 eV ==== 
     psi = 0.489*[#   7]+0.250*[#   9]+0.155*[#   8]+0.048*[#   5]+0.014*[#  10]
          +0.007*[#  14]+0.007*[#  18]+0.004*[#  12]+0.004*[#  16]+0.003*[#  11]
          +0.003*[#  15]
    |psi|^2 = 0.984
==== e(  14) =    -2.73854 eV ==== 
     psi = 0.447*[#   8]+0.163*[#  13]+0.163*[#  17]+0.108*[#   7]+0.043*[#  14]
          +0.043*[#  18]+0.013*[#   9]+0.002*[#  12]+0.002*[#  16]
    |psi|^2 = 0.986
==== e(  15) =    -2.72886 eV ==== 
     psi = 0.571*[#   9]+0.181*[#   7]+0.049*[#  14]+0.049*[#  18]+0.031*[#  12]
          +0.031*[#  16]+0.029*[#  13]+0.029*[#  17]+0.020*[#   8]
    |psi|^2 = 0.991
==== e(  16) =    -1.91202 eV ==== 
     psi = 0.325*[#   5]+0.194*[#   6]+0.153*[#  14]+0.153*[#  18]+0.035*[#  13]
          +0.035*[#  17]+0.026*[#   8]+0.022*[#  12]+0.022*[#  16]+0.007*[#  11]
          +0.007*[#  15]+0.003*[#   9]+0.003*[#   7]
    |psi|^2 = 0.985
==== e(  17) =    -1.53093 eV ==== 
     psi = 0.275*[#   6]+0.246*[#  13]+0.246*[#  17]+0.163*[#   5]+0.018*[#  14]
          +0.018*[#  18]+0.017*[#   7]+0.001*[#  12]+0.001*[#  16]+0.001*[#   9]
          
    |psi|^2 = 0.988
==== e(  18) =     2.55048 eV ==== 
     psi = 0.258*[#  10]+0.027*[#  12]+0.027*[#  16]+0.024*[#  11]+0.024*[#  15]
          +0.018*[#  14]+0.018*[#  18]+0.002*[#  13]+0.002*[#  17]
    |psi|^2 = 0.402
==== e(  19) =     2.94657 eV ==== 
     psi = 0.026*[#  10]+0.006*[#  14]+0.006*[#  18]+0.002*[#  12]+0.002*[#  16]
          +0.002*[#  11]+0.002*[#  15]
    |psi|^2 = 0.050
==== e(  20) =     3.07762 eV ==== 
     psi = 0.137*[#  10]+0.020*[#  14]+0.020*[#  18]+0.013*[#  12]+0.013*[#  16]
          +0.012*[#  11]+0.012*[#  15]+0.005*[#  13]+0.005*[#  17]+0.004*[#   9]
          +0.002*[#   8]
    |psi|^2 = 0.243

 k =   0.0625000000  0.2525907428  0.0000000000
==== e(   1) =  -104.63550 eV ==== 
     psi = 0.995*[#   1]+0.001*[#  12]+0.001*[#  16]
    |psi|^2 = 1.000
==== e(   2) =   -65.02958 eV ==== 
     psi = 0.999*[#   2]
    |psi|^2 = 1.000
==== e(   3) =   -65.02839 eV ==== 
     psi = 0.954*[#   4]+0.045*[#   3]
    |psi|^2 = 1.000
==== e(   4) =   -65.02822 eV ==== 
     psi = 0.955*[#   3]+0.045*[#   4]
    |psi|^2 = 1.000
==== e(   5) =   -15.39002 eV ==== 
     psi = 0.399*[#  11]+0.399*[#  15]+0.176*[#  10]+0.007*[#  14]+0.007*[#  18]
          +0.005*[#  12]+0.005*[#  16]
    |psi|^2 = 0.999
==== e(   6) =   -14.64084 eV ==== 
     psi = 0.489*[#  11]+0.489*[#  15]+0.005*[#   5]+0.004*[#  14]+0.004*[#  18]
          +0.004*[#   6]+0.001*[#  12]+0.001*[#  16]
    |psi|^2 = 0.998
==== e(   7) =    -6.44717 eV ==== 
     psi = 0.338*[#  12]+0.338*[#  16]+0.118*[#  10]+0.042*[#  11]+0.042*[#  15]
          +0.036*[#   9]+0.035*[#  14]+0.035*[#  18]+0.003*[#   8]+0.002*[#   1]
          +0.002*[#   7]+0.002*[#  13]+0.002*[#  17]
    |psi|^2 = 0.995
==== e(   8) =    -5.71207 eV ==== 
     psi = 0.293*[#  14]+0.293*[#  18]+0.096*[#   5]+0.072*[#  12]+0.072*[#  16]
          +0.066*[#   6]+0.061*[#   8]+0.011*[#  13]+0.011*[#  17]+0.003*[#   9]
          +0.002*[#  10]+0.002*[#  11]+0.002*[#  15]
    |psi|^2 = 0.985
==== e(   9) =    -4.91661 eV ==== 
     psi = 0.287*[#  14]+0.287*[#  18]+0.127*[#   5]+0.079*[#   9]+0.054*[#  12]
          +0.054*[#  16]+0.029*[#  10]+0.013*[#  13]+0.013*[#  17]+0.011*[#   7]
          +0.011*[#   8]+0.010*[#  11]+0.010*[#  15]
    |psi|^2 = 0.986
==== e(  10) =    -4.84571 eV ==== 
     psi = 0.287*[#   6]+0.253*[#  13]+0.253*[#  17]+0.135*[#   5]+0.022*[#   7]
          +0.015*[#  14]+0.015*[#  18]+0.003*[#  10]+0.003*[#   9]+0.001*[#  12]
          +0.001*[#  16]
    |psi|^2 = 0.988
==== e(  11) =    -3.97626 eV ==== 
     psi = 0.276*[#  13]+0.276*[#  17]+0.141*[#   6]+0.136*[#   8]+0.113*[#   7]
          +0.014*[#   5]+0.008*[#  14]+0.008*[#  18]+0.003*[#   9]+0.002*[#  12]
          +0.002*[#  16]+0.001*[#  10]
    |psi|^2 = 0.981
==== e(  12) =    -3.56528 eV ==== 
     psi = 0.344*[#  12]+0.344*[#  16]+0.122*[#  14]+0.122*[#  18]+0.016*[#   8]
          +0.013*[#   5]+0.009*[#  13]+0.009*[#  17]+0.003*[#   6]
    |psi|^2 = 0.985
==== e(  13) =    -3.17949 eV ==== 
     psi = 0.418*[#   7]+0.239*[#   8]+0.238*[#   9]+0.046*[#   5]+0.014*[#  10]
          +0.006*[#  12]+0.006*[#  16]+0.004*[#  14]+0.004*[#  18]+0.003*[#  11]
          +0.003*[#  15]+0.002*[#   6]
    |psi|^2 = 0.983
==== e(  14) =    -2.76748 eV ==== 
     psi = 0.341*[#   7]+0.330*[#   8]+0.134*[#  13]+0.134*[#  17]+0.015*[#   9]
          +0.008*[#  12]+0.008*[#  16]+0.006*[#   6]+0.006*[#  14]+0.006*[#  18]
          
    |psi|^2 = 0.987
==== e(  15) =    -2.75266 eV ==== 
     psi = 0.591*[#   9]+0.173*[#   8]+0.076*[#   7]+0.039*[#  14]+0.039*[#  18]
          +0.033*[#  12]+0.033*[#  16]+0.005*[#   5]+0.002*[#  13]+0.002*[#  17]
          
    |psi|^2 = 0.992
==== e(  16) =    -2.04162 eV ==== 
     psi = 0.461*[#   5]+0.106*[#   6]+0.095*[#  14]+0.095*[#  18]+0.072*[#  12]
          +0.072*[#  16]+0.018*[#  13]+0.018*[#  17]+0.018*[#   9]+0.011*[#   8]
          +0.008*[#  11]+0.008*[#  15]+0.005*[#   7]
    |psi|^2 = 0.988
==== e(  17) =    -1.59671 eV ==== 
     psi = 0.375*[#   6]+0.258*[#  13]+0.258*[#  17]+0.084*[#   5]+0.003*[#  12]
          +0.003*[#  16]+0.003*[#  14]+0.003*[#  18]
    |psi|^2 = 0.989
==== e(  18) =     2.52481 eV ==== 
     psi = 0.294*[#  10]+0.049*[#  14]+0.049*[#  18]+0.023*[#  12]+0.023*[#  16]
          +0.018*[#  11]+0.018*[#  15]+0.006*[#  13]+0.006*[#  17]+0.002*[#   9]
          +0.002*[#   8]+0.002*[#   7]
    |psi|^2 = 0.492
==== e(  19) =     2.92064 eV ==== 
     psi = 0.112*[#  10]+0.011*[#  12]+0.011*[#  16]+0.008*[#  11]+0.008*[#  15]
          +0.006*[#  14]+0.006*[#  18]+0.001*[#   8]+0.001*[#  13]+0.001*[#  17]
          
    |psi|^2 = 0.167
==== e(  20) =     3.17853 eV ==== 
     psi = 0.003*[#   8]+0.002*[#  10]+0.001*[#   5]
    |psi|^2 = 0.012

 k =   0.0625000000  0.3247595264  0.0000000000
==== e(   1) =  -104.63550 eV ==== 
     psi = 0.995*[#   1]+0.001*[#  14]+0.001*[#  18]
    |psi|^2 = 1.000
==== e(   2) =   -65.02957 eV ==== 
     psi = 0.999*[#   2]
    |psi|^2 = 1.000
==== e(   3) =   -65.02849 eV ==== 
     psi = 0.978*[#   4]+0.021*[#   3]
    |psi|^2 = 1.000
==== e(   4) =   -65.02825 eV ==== 
     psi = 0.978*[#   3]+0.021*[#   4]
    |psi|^2 = 1.000
==== e(   5) =   -15.19779 eV ==== 
     psi = 0.419*[#  11]+0.419*[#  15]+0.134*[#  10]+0.008*[#  14]+0.008*[#  18]
          +0.004*[#  12]+0.004*[#  16]
    |psi|^2 = 0.999
==== e(   6) =   -14.55791 eV ==== 
     psi = 0.488*[#  11]+0.488*[#  15]+0.008*[#   5]+0.005*[#   6]+0.004*[#  14]
          +0.004*[#  18]
    |psi|^2 = 0.999
==== e(   7) =    -6.50410 eV ==== 
     psi = 0.192*[#  12]+0.192*[#  16]+0.161*[#  10]+0.160*[#  14]+0.160*[#  18]
          +0.043*[#  11]+0.043*[#  15]+0.020*[#   8]+0.008*[#   9]+0.005*[#   7]
          +0.003*[#  13]+0.003*[#  17]+0.002*[#   1]
    |psi|^2 = 0.993
==== e(   8) =    -6.04806 eV ==== 
     psi = 0.301*[#  14]+0.301*[#  18]+0.120*[#  12]+0.120*[#  16]+0.055*[#   5]
          +0.037*[#   8]+0.024*[#   6]+0.010*[#   9]+0.005*[#  13]+0.005*[#  17]
          +0.003*[#  11]+0.003*[#  15]
    |psi|^2 = 0.984
==== e(   9) =    -5.24760 eV ==== 
     psi = 0.214*[#  14]+0.214*[#  18]+0.156*[#  12]+0.156*[#  16]+0.112*[#   5]
          +0.085*[#   9]+0.014*[#   6]+0.011*[#  13]+0.011*[#  17]+0.008*[#  10]
          +0.003*[#   7]+0.002*[#  11]+0.002*[#  15]
    |psi|^2 = 0.988
==== e(  10) =    -4.85610 eV ==== 
     psi = 0.305*[#   6]+0.268*[#  13]+0.268*[#  17]+0.124*[#   5]+0.007*[#  14]
          +0.007*[#  18]+0.004*[#   7]+0.002*[#  10]+0.001*[#  12]+0.001*[#  16]
          
    |psi|^2 = 0.989
==== e(  11) =    -4.18033 eV ==== 
     psi = 0.324*[#  13]+0.324*[#  17]+0.125*[#   6]+0.090*[#   7]+0.087*[#   8]
          +0.009*[#   5]+0.006*[#  14]+0.006*[#  18]+0.003*[#   9]+0.002*[#  10]
          +0.001*[#  12]+0.001*[#  16]
    |psi|^2 = 0.980
==== e(  12) =    -3.80432 eV ==== 
     psi = 0.292*[#  12]+0.292*[#  16]+0.129*[#  14]+0.129*[#  18]+0.068*[#   5]
          +0.038*[#   8]+0.016*[#   6]+0.008*[#  13]+0.008*[#  17]+0.002*[#  10]
          +0.001*[#  11]+0.001*[#  15]
    |psi|^2 = 0.987
==== e(  13) =    -3.19437 eV ==== 
     psi = 0.363*[#   7]+0.270*[#   8]+0.245*[#   9]+0.049*[#   5]+0.014*[#  10]
          +0.010*[#   6]+0.008*[#  12]+0.008*[#  16]+0.003*[#  13]+0.003*[#  17]
          +0.002*[#  11]+0.002*[#  14]+0.002*[#  15]+0.002*[#  18]
    |psi|^2 = 0.981
==== e(  14) =    -2.83972 eV ==== 
     psi = 0.516*[#   7]+0.152*[#   9]+0.117*[#   8]+0.082*[#  13]+0.082*[#  17]
          +0.017*[#   5]+0.010*[#   6]+0.006*[#  12]+0.006*[#  16]
    |psi|^2 = 0.989
==== e(  15) =    -2.78762 eV ==== 
     psi = 0.449*[#   9]+0.396*[#   8]+0.035*[#  12]+0.035*[#  16]+0.023*[#  14]
          +0.023*[#  18]+0.010*[#  13]+0.010*[#  17]+0.004*[#   6]+0.004*[#   5]
          +0.002*[#  10]
    |psi|^2 = 0.992
==== e(  16) =    -2.00550 eV ==== 
     psi = 0.504*[#   5]+0.122*[#  12]+0.122*[#  16]+0.052*[#   6]+0.051*[#  14]
          +0.051*[#  18]+0.035*[#   9]+0.014*[#  13]+0.014*[#  17]+0.009*[#   8]
          +0.008*[#  11]+0.008*[#  15]
    |psi|^2 = 0.988
==== e(  17) =    -1.61171 eV ==== 
     psi = 0.426*[#   6]+0.248*[#  13]+0.248*[#  17]+0.037*[#   5]+0.010*[#  12]
          +0.010*[#  16]+0.007*[#   7]+0.001*[#  11]+0.001*[#  15]
    |psi|^2 = 0.991
==== e(  18) =     2.03989 eV ==== 
     psi = 0.334*[#  10]+0.060*[#  14]+0.060*[#  18]+0.020*[#  12]+0.020*[#  16]
          +0.014*[#  11]+0.014*[#  15]+0.006*[#  13]+0.006*[#  17]+0.004*[#   8]
          +0.002*[#   7]+0.001*[#   1]
    |psi|^2 = 0.541
==== e(  19) =     3.17615 eV ==== 
     psi = 0.108*[#  10]+0.009*[#  12]+0.009*[#  16]+0.007*[#   8]+0.006*[#  14]
          +0.006*[#  18]+0.006*[#  11]+0.006*[#  15]+0.002*[#  13]+0.002*[#  17]
          
    |psi|^2 = 0.162
==== e(  20) =     3.44610 eV ==== 
     psi = 0.013*[#  10]+0.002*[#   5]+0.002*[#   8]+0.001*[#  14]+0.001*[#  18]
          +0.001*[#  12]+0.001*[#  16]+0.001*[#   9]
    |psi|^2 = 0.026

 k =   0.0625000000  0.3969283101  0.0000000000
==== e(   1) =  -104.63550 eV ==== 
     psi = 0.995*[#   1]+0.002*[#  14]+0.002*[#  18]
    |psi|^2 = 1.000
==== e(   2) =   -65.02955 eV ==== 
     psi = 0.999*[#   2]
    |psi|^2 = 1.000
==== e(   3) =   -65.02858 eV ==== 
     psi = 0.989*[#   4]+0.009*[#   3]
    |psi|^2 = 1.000
==== e(   4) =   -65.02828 eV ==== 
     psi = 0.990*[#   3]+0.009*[#   4]
    |psi|^2 = 1.000
==== e(   5) =   -14.99422 eV ==== 
     psi = 0.441*[#  11]+0.441*[#  15]+0.088*[#  10]+0.008*[#  14]+0.008*[#  18]
          +0.004*[#  12]+0.004*[#  16]+0.002*[#   5]
    |psi|^2 = 0.999
==== e(   6) =   -14.49002 eV ==== 
     psi = 0.487*[#  11]+0.487*[#  15]+0.011*[#   5]+0.005*[#   6]+0.003*[#  10]
          +0.002*[#  14]+0.002*[#  18]
    |psi|^2 = 0.999
==== e(   7) =    -6.85100 eV ==== 
     psi = 0.292*[#  14]+0.292*[#  18]+0.174*[#  10]+0.066*[#  12]+0.066*[#  16]
          +0.034*[#   8]+0.028*[#  11]+0.028*[#  15]+0.005*[#   7]+0.002*[#   1]
          +0.001*[#  13]+0.001*[#  17]
    |psi|^2 = 0.991
==== e(   8) =    -6.25725 eV ==== 
     psi = 0.313*[#  14]+0.313*[#  18]+0.131*[#  12]+0.131*[#  16]+0.039*[#   5]
          +0.011*[#   8]+0.010*[#  10]+0.008*[#  11]+0.008*[#  15]+0.008*[#   6]
          +0.005*[#   9]+0.004*[#  13]+0.004*[#  17]
    |psi|^2 = 0.986
==== e(   9) =    -5.25454 eV ==== 
     psi = 0.269*[#  12]+0.269*[#  16]+0.117*[#  14]+0.117*[#  18]+0.097*[#   5]
          +0.083*[#   9]+0.016*[#   6]+0.009*[#  13]+0.009*[#  17]
    |psi|^2 = 0.988
==== e(  10) =    -4.86019 eV ==== 
     psi = 0.316*[#   6]+0.276*[#  13]+0.276*[#  17]+0.101*[#   5]+0.004*[#  12]
          +0.004*[#  16]+0.004*[#  14]+0.004*[#  18]+0.004*[#  10]
    |psi|^2 = 0.990
==== e(  11) =    -4.35895 eV ==== 
     psi = 0.365*[#  13]+0.365*[#  17]+0.095*[#   6]+0.068*[#   8]+0.055*[#   7]
          +0.010*[#  14]+0.010*[#  18]+0.005*[#  10]+0.003*[#   9]+0.002*[#   5]
          
    |psi|^2 = 0.979
==== e(  12) =    -4.08498 eV ==== 
     psi = 0.280*[#  12]+0.280*[#  16]+0.123*[#   5]+0.104*[#  14]+0.104*[#  18]
          +0.035*[#   8]+0.033*[#   6]+0.010*[#  13]+0.010*[#  17]+0.003*[#   7]
          +0.002*[#  11]+0.002*[#  15]+0.002*[#  10]
    |psi|^2 = 0.990
==== e(  13) =    -3.20486 eV ==== 
     psi = 0.294*[#   7]+0.281*[#   8]+0.277*[#   9]+0.056*[#   5]+0.020*[#   6]
          +0.012*[#  10]+0.009*[#  12]+0.009*[#  16]+0.006*[#  13]+0.006*[#  17]
          +0.002*[#  11]+0.002*[#  15]+0.002*[#  14]+0.002*[#  18]
    |psi|^2 = 0.979
==== e(  14) =    -2.93182 eV ==== 
     psi = 0.605*[#   7]+0.158*[#   9]+0.075*[#   8]+0.044*[#  13]+0.044*[#  17]
          +0.038*[#   5]+0.019*[#   6]+0.002*[#  12]+0.002*[#  16]+0.002*[#  10]
          
    |psi|^2 = 0.991
==== e(  15) =    -2.83730 eV ==== 
     psi = 0.455*[#   8]+0.418*[#   9]+0.029*[#  12]+0.029*[#  16]+0.012*[#  14]
          +0.012*[#  18]+0.010*[#  13]+0.010*[#  17]+0.006*[#   6]+0.005*[#  10]
          +0.003*[#   7]+0.002*[#   5]
    |psi|^2 = 0.992
==== e(  16) =    -1.88928 eV ==== 
     psi = 0.507*[#   5]+0.141*[#  12]+0.141*[#  16]+0.044*[#   9]+0.034*[#  14]
          +0.034*[#  18]+0.022*[#  13]+0.022*[#  17]+0.020*[#   6]+0.011*[#   8]
          +0.006*[#  11]+0.006*[#  15]+0.001*[#  10]
    |psi|^2 = 0.989
==== e(  17) =    -1.60297 eV ==== 
     psi = 0.453*[#   6]+0.228*[#  13]+0.228*[#  17]+0.024*[#   7]+0.021*[#  12]
          +0.021*[#  16]+0.011*[#   5]+0.001*[#  11]+0.001*[#  15]+0.001*[#  14]
          +0.001*[#  18]
    |psi|^2 = 0.993
==== e(  18) =     1.63175 eV ==== 
     psi = 0.419*[#  10]+0.071*[#  14]+0.071*[#  18]+0.018*[#  12]+0.018*[#  16]
          +0.012*[#  11]+0.012*[#  15]+0.007*[#   8]+0.006*[#  13]+0.006*[#  17]
          +0.002*[#   5]+0.002*[#   7]+0.002*[#   1]
    |psi|^2 = 0.647
==== e(  19) =     3.27155 eV ==== 
     psi = 0.075*[#  10]+0.010*[#   8]+0.007*[#  12]+0.007*[#  16]+0.004*[#  14]
          +0.004*[#  18]+0.003*[#  11]+0.003*[#  15]+0.002*[#  13]+0.002*[#  17]
          +0.001*[#   7]
    |psi|^2 = 0.118
==== e(  20) =     3.68779 eV ==== 
     psi = 0.016*[#  10]+0.003*[#  14]+0.003*[#  18]+0.003*[#   5]+0.002*[#  12]
          +0.002*[#  16]+0.001*[#   8]+0.001*[#   9]+0.001*[#  13]+0.001*[#  17]
          
    |psi|^2 = 0.034

 k =   0.0625000000  0.4690970937  0.0000000000
==== e(   1) =  -104.63549 eV ==== 
     psi = 0.995*[#   1]+0.002*[#  14]+0.002*[#  18]
    |psi|^2 = 1.000
==== e(   2) =   -65.02954 eV ==== 
     psi = 0.998*[#   2]
    |psi|^2 = 1.000
==== e(   3) =   -65.02865 eV ==== 
     psi = 0.995*[#   4]+0.003*[#   3]
    |psi|^2 = 1.000
==== e(   4) =   -65.02830 eV ==== 
     psi = 0.996*[#   3]+0.003*[#   4]
    |psi|^2 = 1.000
==== e(   5) =   -14.80747 eV ==== 
     psi = 0.466*[#  11]+0.466*[#  15]+0.045*[#  10]+0.006*[#  14]+0.006*[#  18]
          +0.004*[#  12]+0.004*[#  16]+0.002*[#   5]
    |psi|^2 = 0.998
==== e(   6) =   -14.45591 eV ==== 
     psi = 0.484*[#  11]+0.484*[#  15]+0.013*[#   5]+0.010*[#  10]+0.006*[#   6]
          
    |psi|^2 = 0.999
==== e(   7) =    -7.20770 eV ==== 
     psi = 0.329*[#  14]+0.329*[#  18]+0.189*[#  10]+0.036*[#  12]+0.036*[#  16]
          +0.033*[#   8]+0.015*[#  11]+0.015*[#  15]+0.004*[#   7]+0.002*[#   1]
          +0.002*[#   5]
    |psi|^2 = 0.993
==== e(   8) =    -6.41892 eV ==== 
     psi = 0.364*[#  14]+0.364*[#  18]+0.103*[#  12]+0.103*[#  16]+0.020*[#   5]
          +0.007*[#  11]+0.007*[#  15]+0.006*[#  10]+0.004*[#   8]+0.002*[#  13]
          +0.002*[#  17]+0.001*[#   6]
    |psi|^2 = 0.986
==== e(   9) =    -5.08259 eV ==== 
     psi = 0.308*[#  12]+0.308*[#  16]+0.098*[#   5]+0.070*[#   9]+0.060*[#  14]
          +0.060*[#  18]+0.031*[#   6]+0.020*[#  13]+0.020*[#  17]+0.008*[#   8]
          +0.002*[#  11]+0.002*[#  15]+0.001*[#   7]
    |psi|^2 = 0.987
==== e(  10) =    -4.84856 eV ==== 
     psi = 0.317*[#   6]+0.263*[#  13]+0.263*[#  17]+0.103*[#   5]+0.014*[#  12]
          +0.014*[#  16]+0.008*[#   7]+0.004*[#  10]+0.003*[#  14]+0.003*[#  18]
          
    |psi|^2 = 0.993
==== e(  11) =    -4.51222 eV ==== 
     psi = 0.370*[#  13]+0.370*[#  17]+0.060*[#   8]+0.050*[#   6]+0.023*[#  12]
          +0.023*[#  16]+0.023*[#  14]+0.023*[#  18]+0.021*[#   7]+0.011*[#  10]
          +0.002*[#   9]+0.001*[#   5]
    |psi|^2 = 0.977
==== e(  12) =    -4.32574 eV ==== 
     psi = 0.277*[#  12]+0.277*[#  16]+0.130*[#   5]+0.071*[#  14]+0.071*[#  18]
          +0.052*[#   6]+0.042*[#  13]+0.042*[#  17]+0.015*[#   8]+0.004*[#   7]
          +0.003*[#  11]+0.003*[#  15]+0.002*[#   9]
    |psi|^2 = 0.990
==== e(  13) =    -3.21244 eV ==== 
     psi = 0.352*[#   9]+0.284*[#   8]+0.184*[#   7]+0.073*[#   5]+0.026*[#   6]
          +0.012*[#  13]+0.012*[#  17]+0.010*[#  12]+0.010*[#  16]+0.008*[#  10]
          +0.002*[#  11]+0.002*[#  15]+0.002*[#  14]+0.002*[#  18]
    |psi|^2 = 0.978
==== e(  14) =    -3.00372 eV ==== 
     psi = 0.725*[#   7]+0.118*[#   9]+0.042*[#   5]+0.042*[#   8]+0.032*[#   6]
          +0.016*[#  13]+0.016*[#  17]+0.003*[#  10]
    |psi|^2 = 0.994
==== e(  15) =    -2.90153 eV ==== 
     psi = 0.513*[#   8]+0.391*[#   9]+0.018*[#  12]+0.018*[#  16]+0.013*[#  10]
          +0.009*[#   6]+0.007*[#  13]+0.007*[#  17]+0.006*[#  14]+0.006*[#  18]
          +0.003*[#   7]+0.001*[#   5]
    |psi|^2 = 0.992
==== e(  16) =    -1.77510 eV ==== 
     psi = 0.501*[#   5]+0.140*[#  12]+0.140*[#  16]+0.048*[#   9]+0.035*[#  13]
          +0.035*[#  17]+0.029*[#  14]+0.029*[#  18]+0.011*[#   8]+0.005*[#   6]
          +0.005*[#  11]+0.005*[#  15]+0.004*[#   7]+0.004*[#  10]
    |psi|^2 = 0.991
==== e(  17) =    -1.59754 eV ==== 
     psi = 0.462*[#   6]+0.208*[#  13]+0.208*[#  17]+0.037*[#   7]+0.031*[#  12]
          +0.031*[#  16]+0.003*[#   9]+0.003*[#  14]+0.003*[#  18]+0.002*[#  11]
          +0.002*[#  15]+0.001*[#   5]+0.001*[#   8]
    |psi|^2 = 0.993
==== e(  18) =     1.35144 eV ==== 
     psi = 0.500*[#  10]+0.079*[#  14]+0.079*[#  18]+0.018*[#  12]+0.018*[#  16]
          +0.011*[#   8]+0.010*[#  11]+0.010*[#  15]+0.007*[#  13]+0.007*[#  17]
          +0.003*[#   5]+0.002*[#   1]+0.002*[#   7]
    |psi|^2 = 0.746
==== e(  19) =     3.27819 eV ==== 
     psi = 0.038*[#  10]+0.006*[#  12]+0.006*[#  16]+0.005*[#   8]+0.002*[#  13]
          +0.002*[#  17]+0.002*[#  14]+0.002*[#  18]+0.001*[#  11]+0.001*[#  15]
          
    |psi|^2 = 0.066
==== e(  20) =     3.69768 eV ==== 
     psi = 0.005*[#   8]+0.003*[#  14]+0.003*[#  18]+0.002*[#   9]+0.001*[#  13]
          +0.001*[#  17]
    |psi|^2 = 0.017

 k =   0.0625000000  0.5412658774  0.0000000000
==== e(   1) =  -104.63549 eV ==== 
     psi = 0.995*[#   1]+0.002*[#  14]+0.002*[#  18]
    |psi|^2 = 1.000
==== e(   2) =   -65.02953 eV ==== 
     psi = 0.998*[#   2]
    |psi|^2 = 1.000
==== e(   3) =   -65.02869 eV ==== 
     psi = 0.997*[#   4]
    |psi|^2 = 1.000
==== e(   4) =   -65.02831 eV ==== 
     psi = 0.999*[#   3]
    |psi|^2 = 1.000
==== e(   5) =   -14.67860 eV ==== 
     psi = 0.488*[#  11]+0.488*[#  15]+0.008*[#  10]+0.004*[#  12]+0.004*[#  16]
          +0.003*[#  14]+0.003*[#  18]+0.001*[#   5]
    |psi|^2 = 0.998
==== e(   6) =   -14.45986 eV ==== 
     psi = 0.475*[#  11]+0.475*[#  15]+0.025*[#  10]+0.017*[#   5]+0.005*[#   6]
          
    |psi|^2 = 0.999
==== e(   7) =    -7.41075 eV ==== 
     psi = 0.339*[#  14]+0.339*[#  18]+0.201*[#  10]+0.031*[#   8]+0.029*[#  12]
          +0.029*[#  16]+0.008*[#  11]+0.008*[#  15]+0.004*[#   7]+0.003*[#   5]
          +0.002*[#   1]+0.001*[#   9]
    |psi|^2 = 0.995
==== e(   8) =    -6.51436 eV ==== 
     psi = 0.392*[#  14]+0.392*[#  18]+0.091*[#  12]+0.091*[#  16]+0.005*[#  11]
          +0.005*[#  15]+0.004*[#   5]+0.001*[#   7]+0.001*[#  13]+0.001*[#  17]
          
    |psi|^2 = 0.986
==== e(   9) =    -4.90128 eV ==== 
     psi = 0.244*[#  12]+0.244*[#  16]+0.097*[#   5]+0.093*[#   6]+0.079*[#  13]
          +0.079*[#  17]+0.055*[#   9]+0.031*[#   8]+0.024*[#  14]+0.024*[#  18]
          +0.009*[#   7]+0.002*[#  10]+0.002*[#  11]+0.002*[#  15]
    |psi|^2 = 0.986
==== e(  10) =    -4.82440 eV ==== 
     psi = 0.290*[#   6]+0.227*[#  13]+0.227*[#  17]+0.157*[#   5]+0.031*[#  12]
          +0.031*[#  16]+0.017*[#   7]+0.007*[#   8]+0.004*[#   9]+0.002*[#  14]
          +0.002*[#  18]
    |psi|^2 = 0.995
==== e(  11) =    -4.60680 eV ==== 
     psi = 0.212*[#  13]+0.212*[#  17]+0.196*[#  12]+0.196*[#  16]+0.059*[#  14]
          +0.059*[#  18]+0.026*[#   8]+0.009*[#  10]+0.003*[#   6]+0.002*[#   7]
          +0.001*[#  11]+0.001*[#  15]
    |psi|^2 = 0.979
==== e(  12) =    -4.50849 eV ==== 
     psi = 0.195*[#  13]+0.195*[#  17]+0.184*[#  12]+0.184*[#  16]+0.089*[#   5]
          +0.051*[#   6]+0.037*[#  14]+0.037*[#  18]+0.003*[#   9]+0.003*[#  10]
          +0.003*[#  11]+0.003*[#  15]
    |psi|^2 = 0.985
==== e(  13) =    -3.22001 eV ==== 
     psi = 0.441*[#   9]+0.285*[#   8]+0.094*[#   5]+0.070*[#   7]+0.026*[#   6]
          +0.015*[#  13]+0.015*[#  17]+0.009*[#  12]+0.009*[#  16]+0.004*[#  10]
          +0.002*[#  11]+0.002*[#  15]+0.002*[#  14]+0.002*[#  18]
    |psi|^2 = 0.977
==== e(  14) =    -3.03289 eV ==== 
     psi = 0.833*[#   7]+0.052*[#   6]+0.047*[#   8]+0.027*[#   5]+0.026*[#   9]
          +0.002*[#  12]+0.002*[#  13]+0.002*[#  16]+0.002*[#  17]+0.001*[#  10]
          
    |psi|^2 = 0.995
==== e(  15) =    -2.95553 eV ==== 
     psi = 0.529*[#   8]+0.399*[#   9]+0.024*[#  10]+0.006*[#   6]+0.006*[#   7]
          +0.005*[#  12]+0.005*[#  16]+0.004*[#  13]+0.004*[#  17]+0.003*[#   5]
          +0.003*[#  14]+0.003*[#  18]
    |psi|^2 = 0.993
==== e(  16) =    -1.69553 eV ==== 
     psi = 0.488*[#   5]+0.152*[#  12]+0.152*[#  16]+0.053*[#   9]+0.030*[#  14]
          +0.030*[#  18]+0.022*[#  13]+0.022*[#  17]+0.017*[#   6]+0.009*[#   8]
          +0.007*[#  10]+0.005*[#  11]+0.005*[#  15]+0.002*[#   7]
    |psi|^2 = 0.993
==== e(  17) =    -1.61206 eV ==== 
     psi = 0.447*[#   6]+0.217*[#  13]+0.217*[#  17]+0.047*[#   7]+0.019*[#  12]
          +0.019*[#  16]+0.010*[#   5]+0.004*[#   9]+0.003*[#  14]+0.003*[#  18]
          +0.003*[#   8]+0.001*[#  11]+0.001*[#  15]
    |psi|^2 = 0.992
==== e(  18) =     1.21466 eV ==== 
     psi = 0.549*[#  10]+0.083*[#  14]+0.083*[#  18]+0.019*[#  12]+0.019*[#  16]
          +0.014*[#   8]+0.008*[#  11]+0.008*[#  15]+0.007*[#  13]+0.007*[#  17]
          +0.005*[#   5]+0.002*[#   1]+0.002*[#   7]
    |psi|^2 = 0.807
==== e(  19) =     3.24399 eV ==== 
     psi = 0.005*[#  12]+0.005*[#  16]+0.004*[#  10]+0.002*[#  13]+0.002*[#  17]
          
    |psi|^2 = 0.022
==== e(  20) =     3.80649 eV ==== 
     psi = 0.009*[#   8]+0.004*[#   9]+0.002*[#  14]+0.002*[#  18]
    |psi|^2 = 0.020

 k =   0.1250000000  0.2165063509  0.0000000000
==== e(   1) =  -104.63550 eV ==== 
     psi = 0.995*[#   1]+0.001*[#  12]+0.001*[#  16]
    |psi|^2 = 1.000
==== e(   2) =   -65.02959 eV ==== 
     psi = 0.999*[#   2]
    |psi|^2 = 1.000
==== e(   3) =   -65.02837 eV ==== 
     psi = 0.749*[#   4]+0.250*[#   3]
    |psi|^2 = 1.000
==== e(   4) =   -65.02823 eV ==== 
     psi = 0.749*[#   3]+0.250*[#   4]
    |psi|^2 = 1.000
==== e(   5) =   -15.41567 eV ==== 
     psi = 0.397*[#  11]+0.397*[#  15]+0.182*[#  10]+0.005*[#  14]+0.005*[#  18]
          +0.005*[#  12]+0.005*[#  16]+0.002*[#  13]+0.002*[#  17]
    |psi|^2 = 0.999
==== e(   6) =   -14.65264 eV ==== 
     psi = 0.489*[#  11]+0.489*[#  15]+0.006*[#   6]+0.003*[#  14]+0.003*[#  18]
          +0.003*[#   5]+0.001*[#  12]+0.001*[#  16]+0.001*[#  13]+0.001*[#  17]
          
    |psi|^2 = 0.998
==== e(   7) =    -6.45390 eV ==== 
     psi = 0.351*[#  12]+0.351*[#  16]+0.112*[#  10]+0.041*[#  11]+0.041*[#  15]
          +0.040*[#   9]+0.020*[#  14]+0.020*[#  18]+0.007*[#  13]+0.007*[#  17]
          +0.003*[#   7]+0.002*[#   1]
    |psi|^2 = 0.995
==== e(   8) =    -5.62680 eV ==== 
     psi = 0.218*[#  14]+0.218*[#  18]+0.136*[#   6]+0.073*[#  13]+0.073*[#  17]
          +0.071*[#  12]+0.071*[#  16]+0.061*[#   8]+0.059*[#   5]+0.002*[#   7]
          +0.001*[#  11]+0.001*[#  15]
    |psi|^2 = 0.986
==== e(   9) =    -4.87599 eV ==== 
     psi = 0.319*[#   5]+0.187*[#  13]+0.187*[#  17]+0.139*[#   6]+0.072*[#  14]
          +0.072*[#  18]+0.013*[#   7]
    |psi|^2 = 0.991
==== e(  10) =    -4.81839 eV ==== 
     psi = 0.235*[#  14]+0.235*[#  18]+0.103*[#  13]+0.103*[#  17]+0.089*[#   9]
          +0.045*[#  12]+0.045*[#  16]+0.044*[#   7]+0.042*[#  10]+0.012*[#  11]
          +0.012*[#  15]+0.010*[#   5]+0.004*[#   6]+0.002*[#   8]
    |psi|^2 = 0.981
==== e(  11) =    -4.03884 eV ==== 
     psi = 0.213*[#   8]+0.189*[#  13]+0.189*[#  17]+0.166*[#   6]+0.072*[#   5]
          +0.067*[#  14]+0.067*[#  18]+0.008*[#   7]+0.003*[#  12]+0.003*[#  16]
          +0.001*[#  11]+0.001*[#  15]
    |psi|^2 = 0.981
==== e(  12) =    -3.52490 eV ==== 
     psi = 0.354*[#  12]+0.354*[#  16]+0.091*[#  14]+0.091*[#  18]+0.036*[#  13]
          +0.036*[#  17]+0.015*[#   8]+0.003*[#   6]+0.001*[#   5]
    |psi|^2 = 0.984
==== e(  13) =    -3.15000 eV ==== 
     psi = 0.686*[#   7]+0.224*[#   9]+0.026*[#   8]+0.015*[#   5]+0.012*[#  10]
          +0.006*[#   6]+0.004*[#  12]+0.004*[#  16]+0.002*[#  11]+0.002*[#  15]
          +0.001*[#  14]+0.001*[#  18]
    |psi|^2 = 0.986
==== e(  14) =    -2.75787 eV ==== 
     psi = 0.656*[#   8]+0.088*[#  13]+0.088*[#  17]+0.044*[#  14]+0.044*[#  18]
          +0.025*[#   7]+0.016*[#  12]+0.016*[#  16]+0.006*[#   6]+0.002*[#   5]
          
    |psi|^2 = 0.987
==== e(  15) =    -2.74710 eV ==== 
     psi = 0.627*[#   9]+0.198*[#   7]+0.032*[#  12]+0.032*[#  16]+0.029*[#  14]
          +0.029*[#  18]+0.018*[#  13]+0.018*[#  17]+0.008*[#   8]
    |psi|^2 = 0.992
==== e(  16) =    -1.91350 eV ==== 
     psi = 0.373*[#   6]+0.163*[#   5]+0.102*[#  13]+0.102*[#  17]+0.064*[#  14]
          +0.064*[#  18]+0.052*[#  12]+0.052*[#  16]+0.007*[#  11]+0.007*[#  15]
          +0.002*[#   8]
    |psi|^2 = 0.990
==== e(  17) =    -1.75415 eV ==== 
     psi = 0.341*[#   5]+0.152*[#  13]+0.152*[#  17]+0.149*[#   6]+0.082*[#  14]
          +0.082*[#  18]+0.006*[#   7]+0.005*[#   9]+0.004*[#  12]+0.004*[#  16]
          +0.001*[#  11]+0.001*[#  15]
    |psi|^2 = 0.980
==== e(  18) =     2.84174 eV ==== 
     psi = 0.421*[#  10]+0.037*[#  14]+0.037*[#  18]+0.037*[#  12]+0.037*[#  16]
          +0.029*[#  11]+0.029*[#  15]+0.018*[#  13]+0.018*[#  17]+0.003*[#   7]
          +0.001*[#   1]
    |psi|^2 = 0.668
==== e(  19) =     2.97774 eV ==== 
     psi = 0.029*[#  10]+0.008*[#  13]+0.008*[#  17]+0.008*[#  14]+0.008*[#  18]
          +0.003*[#   9]+0.002*[#  12]+0.002*[#  16]+0.002*[#   5]+0.002*[#  11]
          +0.002*[#  15]
    |psi|^2 = 0.075
==== e(  20) =     3.09319 eV ==== 
     psi = 0.002*[#   8]
    |psi|^2 = 0.007

 k =   0.1250000000  0.2886751346  0.0000000000
==== e(   1) =  -104.63550 eV ==== 
     psi = 0.995*[#   1]+0.001*[#  12]+0.001*[#  14]+0.001*[#  16]+0.001*[#  18]
          
    |psi|^2 = 1.000
==== e(   2) =   -65.02957 eV ==== 
     psi = 0.999*[#   2]
    |psi|^2 = 1.000
==== e(   3) =   -65.02845 eV ==== 
     psi = 0.864*[#   4]+0.135*[#   3]
    |psi|^2 = 1.000
==== e(   4) =   -65.02826 eV ==== 
     psi = 0.864*[#   3]+0.135*[#   4]
    |psi|^2 = 1.000
==== e(   5) =   -15.24285 eV ==== 
     psi = 0.414*[#  11]+0.414*[#  15]+0.144*[#  10]+0.007*[#  14]+0.007*[#  18]
          +0.005*[#  12]+0.005*[#  16]+0.001*[#  13]+0.001*[#  17]
    |psi|^2 = 0.999
==== e(   6) =   -14.57454 eV ==== 
     psi = 0.488*[#  11]+0.488*[#  15]+0.007*[#   6]+0.005*[#   5]+0.004*[#  14]
          +0.004*[#  18]
    |psi|^2 = 0.999
==== e(   7) =    -6.42835 eV ==== 
     psi = 0.264*[#  12]+0.264*[#  16]+0.149*[#  10]+0.085*[#  14]+0.085*[#  18]
          +0.045*[#  11]+0.045*[#  15]+0.017*[#   9]+0.013*[#  13]+0.013*[#  17]
          +0.007*[#   7]+0.004*[#   8]+0.002*[#   1]+0.001*[#   5]+0.001*[#   6]
          
    |psi|^2 = 0.995
==== e(   8) =    -5.91401 eV ==== 
     psi = 0.288*[#  14]+0.288*[#  18]+0.076*[#  12]+0.076*[#  16]+0.062*[#   6]
          +0.060*[#   8]+0.049*[#   5]+0.040*[#  13]+0.040*[#  17]+0.002*[#   9]
          +0.001*[#  11]+0.001*[#  15]
    |psi|^2 = 0.984
==== e(   9) =    -5.20603 eV ==== 
     psi = 0.206*[#  14]+0.206*[#  18]+0.131*[#  12]+0.131*[#  16]+0.094*[#   9]
          +0.060*[#  13]+0.060*[#  17]+0.049*[#   5]+0.022*[#  10]+0.014*[#   7]
          +0.004*[#  11]+0.004*[#  15]
    |psi|^2 = 0.983
==== e(  10) =    -4.93180 eV ==== 
     psi = 0.242*[#  13]+0.242*[#  17]+0.223*[#   5]+0.179*[#   6]+0.045*[#  14]
          +0.045*[#  18]+0.006*[#   7]+0.005*[#  10]
    |psi|^2 = 0.989
==== e(  11) =    -4.28763 eV ==== 
     psi = 0.246*[#  13]+0.246*[#  17]+0.196*[#   6]+0.125*[#   8]+0.058*[#   5]
          +0.036*[#  14]+0.036*[#  18]+0.023*[#   7]+0.005*[#  12]+0.005*[#  16]
          +0.001*[#  11]+0.001*[#  15]
    |psi|^2 = 0.982
==== e(  12) =    -3.70241 eV ==== 
     psi = 0.297*[#  12]+0.297*[#  16]+0.118*[#  14]+0.118*[#  18]+0.043*[#   8]
          +0.032*[#  13]+0.032*[#  17]+0.026*[#   5]+0.019*[#   6]+0.001*[#  11]
          +0.001*[#  15]
    |psi|^2 = 0.985
==== e(  13) =    -3.14478 eV ==== 
     psi = 0.659*[#   7]+0.205*[#   9]+0.081*[#   8]+0.011*[#  10]+0.011*[#   5]
          +0.006*[#  12]+0.006*[#  16]+0.002*[#  11]+0.002*[#  15]
    |psi|^2 = 0.986
==== e(  14) =    -2.80134 eV ==== 
     psi = 0.565*[#   9]+0.258*[#   7]+0.039*[#  13]+0.039*[#  17]+0.024*[#  12]
          +0.024*[#  16]+0.017*[#   8]+0.012*[#   5]+0.005*[#   6]+0.004*[#  14]
          +0.004*[#  18]+0.001*[#  10]
    |psi|^2 = 0.991
==== e(  15) =    -2.76996 eV ==== 
     psi = 0.650*[#   8]+0.087*[#   9]+0.049*[#  13]+0.049*[#  17]+0.033*[#  12]
          +0.033*[#  16]+0.031*[#  14]+0.031*[#  18]+0.018*[#   7]+0.005*[#   6]
          +0.001*[#   5]
    |psi|^2 = 0.988
==== e(  16) =    -1.96960 eV ==== 
     psi = 0.549*[#   5]+0.091*[#  14]+0.091*[#  18]+0.056*[#  12]+0.056*[#  16]
          +0.056*[#  13]+0.056*[#  17]+0.017*[#   9]+0.005*[#  11]+0.005*[#  15]
          +0.001*[#   8]
    |psi|^2 = 0.983
==== e(  17) =    -1.79633 eV ==== 
     psi = 0.515*[#   6]+0.181*[#  13]+0.181*[#  17]+0.048*[#  12]+0.048*[#  16]
          +0.004*[#  11]+0.004*[#  15]+0.002*[#   7]+0.001*[#  14]+0.001*[#  18]
          
    |psi|^2 = 0.988
==== e(  18) =     2.56638 eV ==== 
     psi = 0.361*[#  10]+0.054*[#  14]+0.054*[#  18]+0.024*[#  12]+0.024*[#  16]
          +0.021*[#  13]+0.021*[#  17]+0.017*[#  11]+0.017*[#  15]+0.003*[#   7]
          +0.002*[#   5]+0.002*[#   6]+0.001*[#   1]
    |psi|^2 = 0.599
==== e(  19) =     3.21095 eV ==== 
     psi = 0.067*[#  10]+0.006*[#  12]+0.006*[#  16]+0.005*[#  13]+0.005*[#  17]
          +0.004*[#   8]+0.004*[#  11]+0.004*[#  15]+0.003*[#  14]+0.003*[#  18]
          
    |psi|^2 = 0.109
==== e(  20) =     3.31458 eV ==== 
     psi = 0.036*[#  10]+0.003*[#  12]+0.003*[#  16]+0.002*[#  14]+0.002*[#  18]
          +0.002*[#  11]+0.002*[#  15]+0.001*[#   5]
    |psi|^2 = 0.055

 k =   0.1250000000  0.3608439182  0.0000000000
==== e(   1) =  -104.63550 eV ==== 
     psi = 0.995*[#   1]+0.001*[#  14]+0.001*[#  18]
    |psi|^2 = 1.000
==== e(   2) =   -65.02955 eV ==== 
     psi = 0.999*[#   2]
    |psi|^2 = 1.000
==== e(   3) =   -65.02854 eV ==== 
     psi = 0.931*[#   4]+0.067*[#   3]
    |psi|^2 = 1.000
==== e(   4) =   -65.02829 eV ==== 
     psi = 0.932*[#   3]+0.067*[#   4]
    |psi|^2 = 1.000
==== e(   5) =   -15.04894 eV ==== 
     psi = 0.434*[#  11]+0.434*[#  15]+0.102*[#  10]+0.008*[#  14]+0.008*[#  18]
          +0.004*[#  12]+0.004*[#  16]+0.002*[#   5]+0.001*[#  13]+0.001*[#  17]
          
    |psi|^2 = 0.999
==== e(   6) =   -14.50175 eV ==== 
     psi = 0.488*[#  11]+0.488*[#  15]+0.008*[#   6]+0.008*[#   5]+0.002*[#  14]
          +0.002*[#  18]
    |psi|^2 = 0.999
==== e(   7) =    -6.63382 eV ==== 
     psi = 0.231*[#  14]+0.231*[#  18]+0.178*[#  10]+0.110*[#  12]+0.110*[#  16]
          +0.037*[#  11]+0.037*[#  15]+0.020*[#   8]+0.012*[#  13]+0.012*[#  17]
          +0.008*[#   7]+0.003*[#   6]+0.002*[#   1]+0.002*[#   5]
    |psi|^2 = 0.993
==== e(   8) =    -6.16420 eV ==== 
     psi = 0.303*[#  14]+0.303*[#  18]+0.108*[#  12]+0.108*[#  16]+0.039*[#   5]
          +0.036*[#   8]+0.025*[#  13]+0.025*[#  17]+0.017*[#   6]+0.004*[#  10]
          +0.004*[#  11]+0.004*[#  15]+0.004*[#   9]+0.002*[#   7]
    |psi|^2 = 0.984
==== e(   9) =    -5.31471 eV ==== 
     psi = 0.247*[#  12]+0.247*[#  16]+0.110*[#  14]+0.110*[#  18]+0.090*[#   9]
          +0.058*[#  13]+0.058*[#  17]+0.049*[#   5]+0.009*[#   6]+0.004*[#  10]
          +0.002*[#   7]
    |psi|^2 = 0.983
==== e(  10) =    -4.98641 eV ==== 
     psi = 0.261*[#  13]+0.261*[#  17]+0.187*[#   6]+0.175*[#   5]+0.035*[#  14]
          +0.035*[#  18]+0.010*[#  12]+0.010*[#  16]+0.010*[#  10]+0.003*[#   8]
          
    |psi|^2 = 0.990
==== e(  11) =    -4.49566 eV ==== 
     psi = 0.287*[#  13]+0.287*[#  17]+0.198*[#   6]+0.084*[#   8]+0.031*[#   5]
          +0.030*[#  14]+0.030*[#  18]+0.023*[#   7]+0.003*[#  10]+0.003*[#  12]
          +0.003*[#  16]+0.001*[#   9]+0.001*[#  11]+0.001*[#  15]
    |psi|^2 = 0.982
==== e(  12) =    -3.96694 eV ==== 
     psi = 0.271*[#  12]+0.271*[#  16]+0.111*[#  14]+0.111*[#  18]+0.082*[#   5]
          +0.046*[#   8]+0.038*[#   6]+0.026*[#  13]+0.026*[#  17]+0.002*[#  11]
          +0.002*[#  15]
    |psi|^2 = 0.988
==== e(  13) =    -3.13678 eV ==== 
     psi = 0.611*[#   7]+0.207*[#   9]+0.113*[#   8]+0.010*[#  12]+0.010*[#  16]
          +0.009*[#   5]+0.009*[#  10]+0.008*[#   6]+0.003*[#  13]+0.003*[#  17]
          +0.001*[#  11]+0.001*[#  15]
    |psi|^2 = 0.985
==== e(  14) =    -2.89276 eV ==== 
     psi = 0.513*[#   9]+0.300*[#   7]+0.046*[#   5]+0.033*[#  13]+0.033*[#  17]
          +0.027*[#   8]+0.012*[#  12]+0.012*[#  16]+0.010*[#   6]+0.003*[#  10]
          +0.001*[#  14]+0.001*[#  18]
    |psi|^2 = 0.991
==== e(  15) =    -2.79543 eV ==== 
     psi = 0.647*[#   8]+0.139*[#   9]+0.034*[#  13]+0.034*[#  17]+0.032*[#  12]
          +0.032*[#  16]+0.025*[#   7]+0.020*[#  14]+0.020*[#  18]+0.005*[#   6]
          +0.001*[#  10]
    |psi|^2 = 0.989
==== e(  16) =    -1.99812 eV ==== 
     psi = 0.514*[#   5]+0.083*[#  13]+0.083*[#  17]+0.063*[#  12]+0.063*[#  16]
          +0.050*[#  14]+0.050*[#  18]+0.032*[#   9]+0.022*[#   6]+0.010*[#   7]
          +0.004*[#   8]+0.003*[#  11]+0.003*[#  15]+0.002*[#  10]
    |psi|^2 = 0.983
==== e(  17) =    -1.72372 eV ==== 
     psi = 0.486*[#   6]+0.136*[#  13]+0.136*[#  17]+0.086*[#  12]+0.086*[#  16]
          +0.030*[#   5]+0.009*[#   7]+0.007*[#  14]+0.007*[#  18]+0.005*[#  11]
          +0.005*[#  15]+0.001*[#   9]
    |psi|^2 = 0.993
==== e(  18) =     2.15550 eV ==== 
     psi = 0.401*[#  10]+0.063*[#  14]+0.063*[#  18]+0.020*[#  13]+0.020*[#  17]
          +0.020*[#  12]+0.020*[#  16]+0.012*[#  11]+0.012*[#  15]+0.002*[#   5]
          +0.002*[#   7]+0.002*[#   8]+0.002*[#   1]+0.001*[#   6]
    |psi|^2 = 0.640
==== e(  19) =     3.35413 eV ==== 
     psi = 0.059*[#  10]+0.007*[#   8]+0.007*[#  13]+0.007*[#  17]+0.005*[#  12]
          +0.005*[#  16]+0.003*[#  14]+0.003*[#  18]+0.002*[#  11]+0.002*[#  15]
          
    |psi|^2 = 0.100
==== e(  20) =     3.71580 eV ==== 
     psi = 0.045*[#  10]+0.003*[#  12]+0.003*[#  16]+0.003*[#  14]+0.003*[#  18]
          +0.002*[#  11]+0.002*[#  15]+0.001*[#   5]
    |psi|^2 = 0.064

 k =   0.1250000000  0.4330127019  0.0000000000
==== e(   1) =  -104.63549 eV ==== 
     psi = 0.995*[#   1]+0.002*[#  14]+0.002*[#  18]
    |psi|^2 = 1.000
==== e(   2) =   -65.02954 eV ==== 
     psi = 0.999*[#   2]
    |psi|^2 = 1.000
==== e(   3) =   -65.02861 eV ==== 
     psi = 0.971*[#   4]+0.027*[#   3]
    |psi|^2 = 1.000
==== e(   4) =   -65.02832 eV ==== 
     psi = 0.972*[#   3]+0.027*[#   4]
    |psi|^2 = 1.000
==== e(   5) =   -14.85750 eV ==== 
     psi = 0.456*[#  11]+0.456*[#  15]+0.060*[#  10]+0.007*[#  14]+0.007*[#  18]
          +0.004*[#  12]+0.004*[#  16]+0.003*[#   5]+0.001*[#  13]+0.001*[#  17]
          
    |psi|^2 = 0.999
==== e(   6) =   -14.45270 eV ==== 
     psi = 0.487*[#  11]+0.487*[#  15]+0.010*[#   5]+0.008*[#   6]+0.004*[#  10]
          
    |psi|^2 = 0.999
==== e(   7) =    -6.98449 eV ==== 
     psi = 0.309*[#  14]+0.309*[#  18]+0.189*[#  10]+0.046*[#  12]+0.046*[#  16]
          +0.027*[#   8]+0.021*[#  11]+0.021*[#  15]+0.006*[#   7]+0.006*[#  13]
          +0.006*[#  17]+0.003*[#   5]+0.002*[#   1]
    |psi|^2 = 0.993
==== e(   8) =    -6.32746 eV ==== 
     psi = 0.336*[#  14]+0.336*[#  18]+0.103*[#  12]+0.103*[#  16]+0.029*[#   5]
          +0.017*[#  13]+0.017*[#  17]+0.016*[#   8]+0.007*[#  10]+0.006*[#  11]
          +0.006*[#  15]+0.004*[#   7]+0.002*[#   6]+0.001*[#   9]
    |psi|^2 = 0.985
==== e(   9) =    -5.23306 eV ==== 
     psi = 0.247*[#  12]+0.247*[#  16]+0.137*[#  13]+0.137*[#  17]+0.065*[#   9]
          +0.039*[#   6]+0.034*[#  14]+0.034*[#  18]+0.020*[#   5]+0.012*[#   8]
          +0.005*[#  10]
    |psi|^2 = 0.980
==== e(  10) =    -4.98943 eV ==== 
     psi = 0.203*[#  13]+0.203*[#  17]+0.179*[#   5]+0.139*[#   6]+0.079*[#  12]
          +0.079*[#  16]+0.040*[#  14]+0.040*[#  18]+0.014*[#  10]+0.009*[#   9]
          +0.003*[#   8]+0.001*[#  11]+0.001*[#  15]
    |psi|^2 = 0.993
==== e(  11) =    -4.67861 eV ==== 
     psi = 0.310*[#  13]+0.310*[#  17]+0.197*[#   6]+0.061*[#   8]+0.035*[#  14]
          +0.035*[#  18]+0.018*[#   7]+0.007*[#  10]+0.006*[#   5]
    |psi|^2 = 0.982
==== e(  12) =    -4.22764 eV ==== 
     psi = 0.272*[#  12]+0.272*[#  16]+0.126*[#   5]+0.085*[#  14]+0.085*[#  18]
          +0.062*[#   6]+0.030*[#   8]+0.025*[#  13]+0.025*[#  17]+0.003*[#  11]
          +0.003*[#  15]
    |psi|^2 = 0.990
==== e(  13) =    -3.12363 eV ==== 
     psi = 0.466*[#   7]+0.295*[#   9]+0.133*[#   8]+0.018*[#   5]+0.018*[#   6]
          +0.014*[#  12]+0.014*[#  16]+0.009*[#  13]+0.009*[#  17]+0.005*[#  10]
          +0.001*[#  14]+0.001*[#  18]
    |psi|^2 = 0.984
==== e(  14) =    -2.98380 eV ==== 
     psi = 0.431*[#   7]+0.414*[#   9]+0.067*[#   5]+0.017*[#   8]+0.017*[#  13]
          +0.017*[#  17]+0.017*[#   6]+0.007*[#  10]+0.003*[#  12]+0.003*[#  16]
          
    |psi|^2 = 0.992
[...]
          +0.004*[#  11]+0.004*[#  15]
    |psi|^2 = 0.985
==== e(   9) =    -5.59826 eV ==== 
     psi = 0.354*[#  13]+0.354*[#  17]+0.068*[#  12]+0.068*[#  16]+0.053*[#   8]
          +0.041*[#  10]+0.013*[#   9]+0.008*[#   7]+0.007*[#  14]+0.007*[#  18]
          +0.003*[#   6]+0.003*[#   5]
    |psi|^2 = 0.978
==== e(  10) =    -5.03187 eV ==== 
     psi = 0.330*[#  13]+0.330*[#  17]+0.201*[#   6]+0.039*[#  14]+0.039*[#  18]
          +0.022*[#   5]+0.015*[#   7]+0.009*[#   8]
    |psi|^2 = 0.985
==== e(  11) =    -4.75949 eV ==== 
     psi = 0.289*[#  12]+0.289*[#  16]+0.230*[#   5]+0.055*[#  14]+0.055*[#  18]
          +0.018*[#  13]+0.018*[#  17]+0.016*[#   9]+0.009*[#   6]+0.004*[#   7]
          +0.003*[#  11]+0.003*[#  15]+0.003*[#  10]
    |psi|^2 = 0.993
==== e(  12) =    -4.58037 eV ==== 
     psi = 0.277*[#  12]+0.277*[#  16]+0.170*[#   6]+0.101*[#   5]+0.050*[#  14]
          +0.050*[#  18]+0.021*[#  13]+0.021*[#  17]+0.010*[#   8]+0.006*[#   9]
          +0.004*[#  11]+0.004*[#  15]+0.001*[#   7]
    |psi|^2 = 0.993
==== e(  13) =    -3.10149 eV ==== 
     psi = 0.878*[#   9]+0.047*[#   5]+0.023*[#   8]+0.008*[#  13]+0.008*[#  17]
          +0.005*[#  10]+0.004*[#  12]+0.004*[#  16]+0.004*[#   6]+0.004*[#   7]
          
    |psi|^2 = 0.987
==== e(  14) =    -2.97782 eV ==== 
     psi = 0.895*[#   7]+0.039*[#   6]+0.018*[#  12]+0.018*[#  16]+0.014*[#   5]
          +0.004*[#   9]+0.002*[#  10]
    |psi|^2 = 0.993
==== e(  15) =    -2.88430 eV ==== 
     psi = 0.854*[#   8]+0.038*[#   9]+0.019*[#  13]+0.019*[#  17]+0.016*[#  12]
          +0.016*[#  16]+0.009*[#  14]+0.009*[#  18]+0.006*[#  10]+0.002*[#   5]
          +0.002*[#   6]
    |psi|^2 = 0.991
==== e(  16) =    -2.00127 eV ==== 
     psi = 0.321*[#   6]+0.224*[#   5]+0.131*[#  13]+0.131*[#  17]+0.046*[#   7]
          +0.039*[#  12]+0.039*[#  16]+0.018*[#  14]+0.018*[#  18]+0.006*[#   9]
          +0.005*[#   8]+0.003*[#  11]+0.003*[#  15]
    |psi|^2 = 0.984
==== e(  17) =    -1.75856 eV ==== 
     psi = 0.318*[#   5]+0.223*[#   6]+0.147*[#  12]+0.147*[#  16]+0.034*[#  14]
          +0.034*[#  18]+0.024*[#   9]+0.024*[#  13]+0.024*[#  17]+0.005*[#  11]
          +0.005*[#  15]+0.004*[#  10]+0.001*[#   7]
    |psi|^2 = 0.990
==== e(  18) =     1.87452 eV ==== 
     psi = 0.538*[#  10]+0.071*[#  14]+0.071*[#  18]+0.041*[#  13]+0.041*[#  17]
          +0.012*[#  12]+0.012*[#  16]+0.004*[#   5]+0.004*[#  11]+0.004*[#  15]
          +0.003*[#   9]+0.003*[#   1]+0.002*[#   8]
    |psi|^2 = 0.806
==== e(  19) =     3.91379 eV ==== 
     psi = 0.009*[#  10]+0.004*[#  12]+0.004*[#  16]+0.003*[#  13]+0.003*[#  17]
          +0.001*[#   8]+0.001*[#  14]+0.001*[#  18]
    |psi|^2 = 0.029
==== e(  20) =     4.34523 eV ==== 
     psi = 0.003*[#  13]+0.003*[#  17]+0.003*[#  12]+0.003*[#  16]+0.001*[#   5]
          
    |psi|^2 = 0.016

 k =   0.2500000000  0.4330127019  0.0000000000
==== e(   1) =  -104.63549 eV ==== 
     psi = 0.995*[#   1]+0.001*[#  14]+0.001*[#  18]
    |psi|^2 = 1.000
==== e(   2) =   -65.02953 eV ==== 
     psi = 0.999*[#   2]
    |psi|^2 = 1.000
==== e(   3) =   -65.02860 eV ==== 
     psi = 0.749*[#   4]+0.250*[#   3]
    |psi|^2 = 1.000
==== e(   4) =   -65.02840 eV ==== 
     psi = 0.749*[#   3]+0.250*[#   4]
    |psi|^2 = 1.000
==== e(   5) =   -14.72540 eV ==== 
     psi = 0.468*[#  11]+0.468*[#  15]+0.037*[#  10]+0.005*[#  14]+0.005*[#  18]
          +0.004*[#   5]+0.003*[#  12]+0.003*[#  16]+0.002*[#  13]+0.002*[#  17]
          +0.002*[#   6]
    |psi|^2 = 0.999
==== e(   6) =   -14.41922 eV ==== 
     psi = 0.490*[#  11]+0.490*[#  15]+0.013*[#   6]+0.005*[#   5]
    |psi|^2 = 0.999
==== e(   7) =    -6.91449 eV ==== 
     psi = 0.226*[#  14]+0.226*[#  18]+0.223*[#  10]+0.089*[#  13]+0.089*[#  17]
          +0.038*[#  12]+0.038*[#  16]+0.019*[#  11]+0.019*[#  15]+0.013*[#   7]
          +0.007*[#   5]+0.003*[#   6]+0.002*[#   9]+0.002*[#   1]
    |psi|^2 = 0.996
==== e(   8) =    -6.34109 eV ==== 
     psi = 0.279*[#  14]+0.279*[#  18]+0.111*[#  13]+0.111*[#  17]+0.068*[#  12]
          +0.068*[#  16]+0.062*[#   8]+0.002*[#   7]+0.002*[#   6]
    |psi|^2 = 0.982
==== e(   9) =    -5.68314 eV ==== 
     psi = 0.239*[#  13]+0.239*[#  17]+0.111*[#  12]+0.111*[#  16]+0.082*[#  14]
          +0.082*[#  18]+0.037*[#   5]+0.025*[#  10]+0.018*[#   9]+0.016*[#   6]
          +0.016*[#   7]
    |psi|^2 = 0.979
==== e(  10) =    -4.97651 eV ==== 
     psi = 0.273*[#  13]+0.273*[#  17]+0.117*[#   6]+0.112*[#  14]+0.112*[#  18]
          +0.051*[#   5]+0.040*[#   8]+0.002*[#   7]
    |psi|^2 = 0.981
==== e(  11) =    -4.96295 eV ==== 
     psi = 0.258*[#  12]+0.258*[#  16]+0.183*[#   5]+0.080*[#   6]+0.047*[#  14]
          +0.047*[#  18]+0.040*[#  13]+0.040*[#  17]+0.033*[#   9]+0.006*[#  10]
          +0.002*[#  11]+0.002*[#  15]
    |psi|^2 = 0.995
==== e(  12) =    -4.36986 eV ==== 
     psi = 0.259*[#  12]+0.259*[#  16]+0.177*[#   6]+0.077*[#   5]+0.067*[#  14]
          +0.067*[#  18]+0.026*[#  13]+0.026*[#  17]+0.025*[#   8]+0.004*[#  11]
          +0.004*[#  15]
    |psi|^2 = 0.992
==== e(  13) =    -3.04515 eV ==== 
     psi = 0.816*[#   9]+0.094*[#   7]+0.017*[#  12]+0.017*[#  16]+0.015*[#   5]
          +0.006*[#   6]+0.006*[#  13]+0.006*[#  17]+0.004*[#   8]+0.002*[#  14]
          +0.002*[#  18]+0.002*[#  10]
    |psi|^2 = 0.987
==== e(  14) =    -3.01401 eV ==== 
     psi = 0.794*[#   7]+0.084*[#   9]+0.044*[#   5]+0.030*[#   8]+0.019*[#   6]
          +0.011*[#  10]+0.006*[#  12]+0.006*[#  16]
    |psi|^2 = 0.994
==== e(  15) =    -2.81166 eV ==== 
     psi = 0.823*[#   8]+0.031*[#   7]+0.028*[#  13]+0.028*[#  17]+0.026*[#  12]
          +0.026*[#  16]+0.013*[#  14]+0.013*[#  18]
    |psi|^2 = 0.990
==== e(  16) =    -2.14466 eV ==== 
     psi = 0.395*[#   5]+0.173*[#   6]+0.063*[#  14]+0.063*[#  18]+0.060*[#  13]
          +0.060*[#  17]+0.044*[#  12]+0.044*[#  16]+0.038*[#   7]+0.034*[#   9]
          +0.003*[#  10]+0.003*[#  11]+0.003*[#  15]+0.001*[#   8]
    |psi|^2 = 0.984
==== e(  17) =    -1.72566 eV ==== 
     psi = 0.383*[#   6]+0.167*[#   5]+0.142*[#  12]+0.142*[#  16]+0.053*[#  13]
          +0.053*[#  17]+0.020*[#  14]+0.020*[#  18]+0.006*[#  11]+0.006*[#  15]
          
    |psi|^2 = 0.992
==== e(  18) =     2.22158 eV ==== 
     psi = 0.517*[#  10]+0.061*[#  14]+0.061*[#  18]+0.055*[#  13]+0.055*[#  17]
          +0.012*[#  12]+0.012*[#  16]+0.005*[#  11]+0.005*[#  15]+0.003*[#   9]
          +0.003*[#   1]+0.002*[#   5]+0.001*[#   6]
    |psi|^2 = 0.791
==== e(  19) =     3.43315 eV ==== 
     psi = 0.002*[#  14]+0.002*[#  18]+0.002*[#  12]+0.002*[#  16]+0.002*[#   8]
          +0.001*[#  13]+0.001*[#  17]
    |psi|^2 = 0.014
==== e(  20) =     4.68851 eV ==== 
     psi = 0.062*[#  10]+0.005*[#  12]+0.005*[#  16]+0.004*[#  14]+0.004*[#  18]
          +0.002*[#  13]+0.002*[#  17]+0.001*[#  11]+0.001*[#  15]
    |psi|^2 = 0.085

 k =   0.2500000000  0.5051814855  0.0000000000
==== e(   1) =  -104.63549 eV ==== 
     psi = 0.995*[#   1]+0.001*[#  14]+0.001*[#  18]
    |psi|^2 = 1.000
==== e(   2) =   -65.02952 eV ==== 
     psi = 0.999*[#   2]
    |psi|^2 = 1.000
==== e(   3) =   -65.02861 eV ==== 
     psi = 0.905*[#   4]+0.094*[#   3]
    |psi|^2 = 1.000
==== e(   4) =   -65.02844 eV ==== 
     psi = 0.905*[#   3]+0.094*[#   4]
    |psi|^2 = 1.000
==== e(   5) =   -14.59441 eV ==== 
     psi = 0.481*[#  11]+0.481*[#  15]+0.013*[#  10]+0.005*[#   5]+0.003*[#  14]
          +0.003*[#  18]+0.003*[#   6]+0.003*[#  12]+0.003*[#  16]+0.002*[#  13]
          +0.002*[#  17]
    |psi|^2 = 0.998
==== e(   6) =   -14.41738 eV ==== 
     psi = 0.489*[#  11]+0.489*[#  15]+0.010*[#   6]+0.008*[#   5]+0.001*[#  10]
          
    |psi|^2 = 0.999
==== e(   7) =    -7.02043 eV ==== 
     psi = 0.290*[#  14]+0.290*[#  18]+0.238*[#  10]+0.049*[#  13]+0.049*[#  17]
          +0.021*[#  12]+0.021*[#  16]+0.007*[#  11]+0.007*[#  15]+0.007*[#   8]
          +0.007*[#   7]+0.006*[#   5]+0.004*[#   9]+0.002*[#   1]
    |psi|^2 = 0.996
==== e(   8) =    -6.33175 eV ==== 
     psi = 0.294*[#  14]+0.294*[#  18]+0.086*[#  13]+0.086*[#  17]+0.077*[#  12]
          +0.077*[#  16]+0.045*[#   8]+0.011*[#   7]+0.006*[#   6]+0.002*[#   5]
          +0.001*[#  11]+0.001*[#  15]+0.001*[#  10]
    |psi|^2 = 0.983
==== e(   9) =    -5.90902 eV ==== 
     psi = 0.295*[#  13]+0.295*[#  17]+0.083*[#  12]+0.083*[#  16]+0.054*[#  14]
          +0.054*[#  18]+0.030*[#  10]+0.026*[#   5]+0.021*[#   7]+0.019*[#   8]
          +0.010*[#   6]+0.008*[#   9]
    |psi|^2 = 0.982
==== e(  10) =    -5.14151 eV ==== 
     psi = 0.322*[#  13]+0.322*[#  17]+0.107*[#  14]+0.107*[#  18]+0.096*[#   6]
          +0.017*[#   8]+0.005*[#   7]+0.002*[#   5]
    |psi|^2 = 0.980
==== e(  11) =    -4.81762 eV ==== 
     psi = 0.287*[#  12]+0.287*[#  16]+0.220*[#   5]+0.060*[#   6]+0.039*[#  14]
          +0.039*[#  18]+0.017*[#  13]+0.017*[#  17]+0.017*[#   9]+0.003*[#  11]
          +0.003*[#  15]+0.003*[#  10]+0.002*[#   7]
    |psi|^2 = 0.995
==== e(  12) =    -4.53898 eV ==== 
     psi = 0.264*[#  12]+0.264*[#  16]+0.216*[#   6]+0.105*[#   5]+0.045*[#  14]
          +0.045*[#  18]+0.016*[#  13]+0.016*[#  17]+0.014*[#   8]+0.004*[#  11]
          +0.004*[#  15]
    |psi|^2 = 0.995
==== e(  13) =    -3.08771 eV ==== 
     psi = 0.934*[#   9]+0.028*[#   5]+0.008*[#  10]+0.003*[#  13]+0.003*[#  17]
          +0.003*[#  12]+0.003*[#  16]+0.002*[#   6]+0.002*[#   8]
    |psi|^2 = 0.988
==== e(  14) =    -2.96033 eV ==== 
     psi = 0.895*[#   7]+0.020*[#  12]+0.020*[#  16]+0.019*[#   8]+0.016*[#   6]
          +0.013*[#   5]+0.003*[#  10]+0.002*[#  13]+0.002*[#  17]
    |psi|^2 = 0.993
==== e(  15) =    -2.84260 eV ==== 
     psi = 0.866*[#   8]+0.022*[#  12]+0.022*[#  16]+0.019*[#  13]+0.019*[#  17]
          +0.018*[#   7]+0.010*[#  14]+0.010*[#  18]+0.003*[#   9]
    |psi|^2 = 0.991
==== e(  16) =    -2.10319 eV ==== 
     psi = 0.347*[#   5]+0.234*[#   6]+0.073*[#  13]+0.073*[#  17]+0.060*[#  12]
          +0.060*[#  16]+0.040*[#  14]+0.040*[#  18]+0.034*[#   7]+0.016*[#   9]
          +0.003*[#  11]+0.003*[#  15]+0.002*[#  10]
    |psi|^2 = 0.984
==== e(  17) =    -1.79688 eV ==== 
     psi = 0.337*[#   6]+0.224*[#   5]+0.138*[#  12]+0.138*[#  16]+0.041*[#  13]
          +0.041*[#  17]+0.028*[#  14]+0.028*[#  18]+0.005*[#  11]+0.005*[#  15]
          +0.003*[#   9]
    |psi|^2 = 0.988
==== e(  18) =     2.09563 eV ==== 
     psi = 0.530*[#  10]+0.066*[#  14]+0.066*[#  18]+0.054*[#  13]+0.054*[#  17]
          +0.006*[#  12]+0.006*[#  16]+0.005*[#   9]+0.003*[#   1]+0.002*[#   5]
          +0.002*[#  11]+0.002*[#  15]
    |psi|^2 = 0.796
==== e(  19) =     3.72706 eV ==== 
     psi = 0.004*[#  12]+0.004*[#  16]+0.002*[#  10]+0.002*[#  13]+0.002*[#  17]
          +0.001*[#   6]+0.001*[#   8]
    |psi|^2 = 0.020
==== e(  20) =     4.62735 eV ==== 
     psi = 0.007*[#  12]+0.007*[#  16]+0.004*[#  10]+0.003*[#   5]
    |psi|^2 = 0.023

 k =   0.2500000000  0.5773502692  0.0000000000
==== e(   1) =  -104.63549 eV ==== 
     psi = 0.995*[#   1]+0.002*[#  14]+0.002*[#  18]
    |psi|^2 = 1.000
==== e(   2) =   -65.02952 eV ==== 
     psi = 0.999*[#   2]
    |psi|^2 = 1.000
==== e(   3) =   -65.02860 eV ==== 
     psi = 0.998*[#   4]
    |psi|^2 = 1.000
==== e(   4) =   -65.02846 eV ==== 
     psi = 0.999*[#   3]
    |psi|^2 = 1.000
==== e(   5) =   -14.53119 eV ==== 
     psi = 0.489*[#  11]+0.489*[#  15]+0.007*[#   6]+0.002*[#  12]+0.002*[#  16]
          +0.002*[#  13]+0.002*[#  17]+0.002*[#   5]+0.001*[#  14]+0.001*[#  18]
          
    |psi|^2 = 0.998
==== e(   6) =   -14.43289 eV ==== 
     psi = 0.486*[#  11]+0.486*[#  15]+0.014*[#   5]+0.006*[#  10]+0.003*[#   6]
          +0.001*[#  14]+0.001*[#  18]
    |psi|^2 = 0.999
==== e(   7) =    -7.06223 eV ==== 
     psi = 0.314*[#  14]+0.314*[#  18]+0.242*[#  10]+0.033*[#  13]+0.033*[#  17]
          +0.015*[#  12]+0.015*[#  16]+0.013*[#   8]+0.005*[#   9]+0.003*[#   5]
          +0.003*[#  11]+0.003*[#  15]+0.002*[#   1]+0.002*[#   7]
    |psi|^2 = 0.996
==== e(   8) =    -6.29645 eV ==== 
     psi = 0.313*[#  14]+0.313*[#  18]+0.090*[#  12]+0.090*[#  16]+0.052*[#  13]
          +0.052*[#  17]+0.034*[#   7]+0.022*[#   6]+0.006*[#   5]+0.004*[#   8]
          +0.003*[#  11]+0.003*[#  15]
    |psi|^2 = 0.985
==== e(   9) =    -6.01410 eV ==== 
     psi = 0.334*[#  13]+0.334*[#  17]+0.066*[#  12]+0.066*[#  16]+0.058*[#   8]
          +0.034*[#  10]+0.033*[#  14]+0.033*[#  18]+0.008*[#   5]+0.007*[#   7]
          +0.005*[#   9]+0.002*[#   6]
    |psi|^2 = 0.981
==== e(  10) =    -5.20698 eV ==== 
     psi = 0.343*[#  13]+0.343*[#  17]+0.101*[#  14]+0.101*[#  18]+0.062*[#   6]
          +0.015*[#   5]+0.011*[#   7]+0.001*[#   8]+0.001*[#  12]+0.001*[#  16]
          
    |psi|^2 = 0.980
==== e(  11) =    -4.70217 eV ==== 
     psi = 0.306*[#  12]+0.306*[#  16]+0.209*[#   6]+0.052*[#   5]+0.051*[#  14]
          +0.051*[#  18]+0.005*[#   7]+0.003*[#  11]+0.003*[#  15]+0.002*[#  13]
          +0.002*[#  17]
    |psi|^2 = 0.993
==== e(  12) =    -4.65519 eV ==== 
     psi = 0.300*[#   5]+0.253*[#  12]+0.253*[#  16]+0.075*[#   6]+0.023*[#  14]
          +0.023*[#  18]+0.022*[#  13]+0.022*[#  17]+0.009*[#   9]+0.007*[#   8]
          +0.005*[#  11]+0.005*[#  15]+0.001*[#  10]
    |psi|^2 = 0.997
==== e(  13) =    -3.10492 eV ==== 
     psi = 0.951*[#   9]+0.015*[#   5]+0.009*[#  10]+0.004*[#   6]+0.003*[#  13]
          +0.003*[#  17]+0.002*[#   8]+0.001*[#  12]+0.001*[#  16]
    |psi|^2 = 0.988
==== e(  14) =    -2.92333 eV ==== 
     psi = 0.811*[#   7]+0.096*[#   8]+0.025*[#  12]+0.025*[#  16]+0.021*[#   6]
          +0.005*[#   5]+0.003*[#  13]+0.003*[#  17]+0.001*[#  14]+0.001*[#  18]
          
    |psi|^2 = 0.993
==== e(  15) =    -2.86913 eV ==== 
     psi = 0.805*[#   8]+0.095*[#   7]+0.018*[#  12]+0.018*[#  16]+0.015*[#  13]
          +0.015*[#  17]+0.009*[#  14]+0.009*[#  18]+0.004*[#   9]+0.002*[#  10]
          
    |psi|^2 = 0.991
==== e(  16) =    -2.05639 eV ==== 
     psi = 0.469*[#   6]+0.117*[#   5]+0.089*[#  13]+0.089*[#  17]+0.066*[#  12]
          +0.066*[#  16]+0.027*[#   7]+0.026*[#  14]+0.026*[#  18]+0.003*[#  11]
          +0.003*[#  15]+0.003*[#   8]
    |psi|^2 = 0.984
==== e(  17) =    -1.85489 eV ==== 
     psi = 0.452*[#   5]+0.135*[#  12]+0.135*[#  16]+0.113*[#   6]+0.039*[#  14]
          +0.039*[#  18]+0.026*[#  13]+0.026*[#  17]+0.011*[#   9]+0.005*[#  11]
          +0.005*[#  15]+0.002*[#  10]
    |psi|^2 = 0.987
==== e(  18) =     2.03905 eV ==== 
     psi = 0.535*[#  10]+0.067*[#  14]+0.067*[#  18]+0.054*[#  13]+0.054*[#  17]
          +0.006*[#   9]+0.004*[#  12]+0.004*[#  16]+0.003*[#   1]+0.002*[#   5]
          +0.001*[#  11]+0.001*[#  15]
    |psi|^2 = 0.798
==== e(  19) =     4.08394 eV ==== 
     psi = 0.005*[#  12]+0.005*[#  16]+0.003*[#   5]+0.003*[#  13]+0.003*[#  17]
          +0.001*[#  10]
    |psi|^2 = 0.022
==== e(  20) =     4.23752 eV ==== 
     psi = 0.006*[#  12]+0.006*[#  16]+0.002*[#   6]+0.001*[#  14]+0.001*[#  18]
          
    |psi|^2 = 0.017

 k =   0.3125000000  0.5412658774  0.0000000000
==== e(   1) =  -104.63549 eV ==== 
     psi = 0.995*[#   1]+0.001*[#  14]+0.001*[#  18]+0.001*[#  13]+0.001*[#  17]
          
    |psi|^2 = 1.000
==== e(   2) =   -65.02952 eV ==== 
     psi = 0.999*[#   2]
    |psi|^2 = 1.000
==== e(   3) =   -65.02857 eV ==== 
     psi = 0.749*[#   4]+0.250*[#   3]
    |psi|^2 = 1.000
==== e(   4) =   -65.02851 eV ==== 
     psi = 0.749*[#   3]+0.250*[#   4]
    |psi|^2 = 1.000
==== e(   5) =   -14.50168 eV ==== 
     psi = 0.488*[#  11]+0.488*[#  15]+0.008*[#   5]+0.003*[#   6]+0.002*[#  10]
          +0.002*[#  14]+0.002*[#  18]+0.002*[#  12]+0.002*[#  16]+0.001*[#  13]
          +0.001*[#  17]
    |psi|^2 = 0.999
==== e(   6) =   -14.43712 eV ==== 
     psi = 0.489*[#  11]+0.489*[#  15]+0.011*[#   6]+0.005*[#   5]
    |psi|^2 = 0.999
==== e(   7) =    -6.96107 eV ==== 
     psi = 0.272*[#  10]+0.214*[#  14]+0.214*[#  18]+0.134*[#  13]+0.134*[#  17]
          +0.007*[#   9]+0.005*[#  12]+0.005*[#  16]+0.003*[#   7]+0.002*[#   1]
          +0.001*[#   5]+0.001*[#  11]+0.001*[#  15]
    |psi|^2 = 0.996
==== e(   8) =    -6.27924 eV ==== 
     psi = 0.219*[#  14]+0.219*[#  18]+0.148*[#  13]+0.148*[#  17]+0.080*[#  12]
          +0.080*[#  16]+0.065*[#   8]+0.012*[#   6]+0.005*[#   5]+0.002*[#   7]
          +0.001*[#  11]+0.001*[#  15]
    |psi|^2 = 0.983
==== e(   9) =    -6.18178 eV ==== 
     psi = 0.219*[#  13]+0.219*[#  17]+0.133*[#  14]+0.133*[#  18]+0.087*[#  12]
          +0.087*[#  16]+0.050*[#   7]+0.025*[#   5]+0.011*[#   6]+0.010*[#  10]
          +0.002*[#  11]+0.002*[#  15]+0.002*[#   8]+0.001*[#   9]
    |psi|^2 = 0.984
==== e(  10) =    -5.29221 eV ==== 
     psi = 0.275*[#  13]+0.275*[#  17]+0.204*[#  14]+0.204*[#  18]+0.011*[#   6]
          +0.005*[#   5]+0.004*[#   8]+0.001*[#   2]
    |psi|^2 = 0.979
==== e(  11) =    -4.72149 eV ==== 
     psi = 0.284*[#  12]+0.284*[#  16]+0.227*[#   5]+0.099*[#   6]+0.022*[#  14]
          +0.022*[#  18]+0.020*[#  13]+0.020*[#  17]+0.005*[#   7]+0.004*[#  11]
          +0.004*[#  15]+0.003*[#   9]
    |psi|^2 = 0.996
==== e(  12) =    -4.63962 eV ==== 
     psi = 0.268*[#  12]+0.268*[#  16]+0.250*[#   6]+0.109*[#   5]+0.028*[#  14]
          +0.028*[#  18]+0.015*[#  13]+0.015*[#  17]+0.008*[#   8]+0.004*[#  11]
          +0.004*[#  15]
    |psi|^2 = 0.997
==== e(  13) =    -3.10707 eV ==== 
     psi = 0.970*[#   9]+0.010*[#  10]+0.004*[#   5]+0.002*[#   6]
    |psi|^2 = 0.988
==== e(  14) =    -2.90332 eV ==== 
     psi = 0.883*[#   7]+0.034*[#   8]+0.024*[#  12]+0.024*[#  16]+0.007*[#   5]
          +0.005*[#  13]+0.005*[#  17]+0.004*[#  14]+0.004*[#  18]+0.003*[#   6]
          
    |psi|^2 = 0.993
==== e(  15) =    -2.86144 eV ==== 
     psi = 0.874*[#   8]+0.033*[#   7]+0.022*[#  12]+0.022*[#  16]+0.011*[#  13]
          +0.011*[#  17]+0.009*[#  14]+0.009*[#  18]
    |psi|^2 = 0.992
==== e(  16) =    -2.04963 eV ==== 
     psi = 0.414*[#   5]+0.181*[#   6]+0.088*[#  12]+0.088*[#  16]+0.048*[#  14]
          +0.048*[#  18]+0.045*[#  13]+0.045*[#  17]+0.015*[#   7]+0.004*[#  11]
          +0.004*[#  15]+0.003*[#   9]
    |psi|^2 = 0.983
==== e(  17) =    -1.91598 eV ==== 
     psi = 0.405*[#   6]+0.177*[#   5]+0.120*[#  12]+0.120*[#  16]+0.043*[#  13]
          +0.043*[#  17]+0.032*[#  14]+0.032*[#  18]+0.004*[#  11]+0.004*[#  15]
          +0.002*[#   8]
    |psi|^2 = 0.985
==== e(  18) =     2.08280 eV ==== 
     psi = 0.530*[#  10]+0.062*[#  14]+0.062*[#  18]+0.061*[#  13]+0.061*[#  17]
          +0.008*[#   9]+0.003*[#   1]+0.001*[#  12]+0.001*[#  16]
    |psi|^2 = 0.790
==== e(  19) =     4.03511 eV ==== 
     psi = 0.006*[#  12]+0.006*[#  16]+0.003*[#   6]+0.001*[#   5]+0.001*[#   8]
          
    |psi|^2 = 0.021
==== e(  20) =     4.39764 eV ==== 
     psi = 0.007*[#  12]+0.007*[#  16]+0.003*[#   5]+0.001*[#   6]
    |psi|^2 = 0.022

Lowdin Charges: 

     Atom #   1: total charge =  17.4790, s =  2.6264, 
     Atom #   1: total charge =  17.4790, p =  5.9999, p1=  2.0000, p2=  2.0000, p3=  2.0000, 
     Atom #   1: total charge =  17.4790, d =  8.8527, d1=  1.6506, d2=  1.3476, d3=  1.9519, d4=  1.9500, d5=  1.9526, 
     Atom #   2: total charge =   7.1335, s =  1.9428, 
     Atom #   2: total charge =   7.1335, p =  5.1907, p1=  1.7864, p2=  1.6272, p3=  1.7771, 
     Atom #   2: total charge =   7.1335, d =  0.0000, d1=  0.0000, d2=  0.0000, d3=  0.0000, d4=  0.0000, d5=  0.0000, 
     Atom #   3: total charge =   7.1335, s =  1.9428, 
     Atom #   3: total charge =   7.1335, p =  5.1907, p1=  1.7864, p2=  1.6272, p3=  1.7771, 
     Atom #   3: total charge =   7.1335, d =  0.0000, d1=  0.0000, d2=  0.0000, d3=  0.0000, d4=  0.0000, d5=  0.0000, 
     Spilling Parameter:   0.0079
 
     PROJWFC      :      2.26s CPU      3.05s WALL

 
   This run was terminated on:  23:16:26  26Jun2023            

=------------------------------------------------------------------------------=
   JOB DONE.
=------------------------------------------------------------------------------=
