
     Program PWSCF v.7.1 starts on 27Jun2023 at 15:34:28

     This program is part of the open-source Quantum ESPRESSO suite
     for quantum simulation of materials; please cite
         "P. Giannozzi et al., J. Phys.:Condens. Matter 21 395502 (2009);
         "P. Giannozzi et al., J. Phys.:Condens. Matter 29 465901 (2017);
         "P. Giannozzi et al., J. Chem. Phys. 152 154105 (2020);
          URL http://www.quantum-espresso.org",
     in publications or presentations arising from this work. More details at
     http://www.quantum-espresso.org/quote

     Parallel version (MPI & OpenMP), running on      20 processor cores
     Number of MPI processes:                20
     Threads/MPI process:                     1

     MPI processes distributed on     1 nodes
     226788 MiB available memory on the printing compute node when the environment starts

     Reading input from input/scf.in

     Current dimensions of program PWSCF are:
     Max number of different atomic species (ntypx) = 10
     Max number of k-points (npk) =  40000
     Max angular momentum in pseudopotentials (lmaxx) =  4
     Message from routine setup:
     using ibrav=0 with symmetry is DISCOURAGED, use correct ibrav instead

     R & G space division:  proc/nbgrp/npool/nimage =      20
     Subspace diagonalization in iterative solution of the eigenvalue problem:
     a serial algorithm will be used


     Parallelization info
     --------------------
     sticks:   dense  smooth     PW     G-vecs:    dense   smooth      PW
     Min          93      89     24                20481    19267    2770
     Max          94      90     25                20502    19300    2795
     Sum        1879    1789    499               409943   385631   55807

     Using Slab Decomposition



     bravais-lattice index     =            0
     lattice parameter (alat)  =       7.3605  a.u.
     unit-cell volume          =    2170.2486 (a.u.)^3
     number of atoms/cell      =            3
     number of atomic types    =            2
     number of electrons       =        32.00
     number of Kohn-Sham states=           20
     kinetic-energy cutoff     =     120.0000  Ry
     charge density cutoff     =     500.0000  Ry
     scf convergence threshold =      1.0E-06
     mixing beta               =       0.4000
     number of iterations used =            8  plain     mixing
     Exchange-correlation= PBE
                           (   1   4   3   4   0   0   0)

     celldm(1)=   7.360481  celldm(2)=   0.000000  celldm(3)=   0.000000
     celldm(4)=   0.000000  celldm(5)=   0.000000  celldm(6)=   0.000000

     crystal axes: (cart. coord. in units of alat)
               a(1) = (   1.000000   0.000000   0.000000 )
               a(2) = (  -0.500000   0.866025   0.000000 )
               a(3) = (   0.000000   0.000000   6.284350 )

     reciprocal axes: (cart. coord. in units 2 pi/alat)
               b(1) = (  1.000000  0.577350  0.000000 )
               b(2) = (  0.000000  1.154701  0.000000 )
               b(3) = (  0.000000  0.000000  0.159125 )


     PseudoPot. # 1 for Ni read from file:
     ../pseudo/Ni.upf
     MD5 check sum: 14a7e289c5fff9cacaba393040e62f02
     Pseudo is Norm-conserving + core correction, Zval = 18.0
     Generated using ONCVPSP code by D. R. Hamann
     Using radial grid of 1372 points,  6 beta functions with:
                l(1) =   0
                l(2) =   0
                l(3) =   1
                l(4) =   1
                l(5) =   2
                l(6) =   2

     PseudoPot. # 2 for I  read from file:
     ../pseudo/I.upf
     MD5 check sum: 301f7009ca0a2b18b0adf53dca02d42f
     Pseudo is Norm-conserving + core correction, Zval =  7.0
     Generated using ONCVPSP code by D. R. Hamann
     Using radial grid of 1210 points,  6 beta functions with:
                l(1) =   0
                l(2) =   0
                l(3) =   1
                l(4) =   1
                l(5) =   2
                l(6) =   2

     atomic species   valence    mass     pseudopotential
        Ni            18.00    58.69340     Ni( 1.00)
        I              7.00   126.90447     I ( 1.00)

     12 Sym. Ops., with inversion, found


                                    s                        frac. trans.

      isym =  1     identity

 cryst.   s( 1) = (     1          0          0      )
                  (     0          1          0      )
                  (     0          0          1      )

 cart.    s( 1) = (  1.0000000  0.0000000  0.0000000 )
                  (  0.0000000  1.0000000  0.0000000 )
                  (  0.0000000  0.0000000  1.0000000 )


      isym =  2     180 deg rotation - cart. axis [1,0,0]

 cryst.   s( 2) = (     1          0          0      )
                  (    -1         -1          0      )
                  (     0          0         -1      )

 cart.    s( 2) = (  1.0000000  0.0000000  0.0000000 )
                  (  0.0000000 -1.0000000  0.0000000 )
                  (  0.0000000  0.0000000 -1.0000000 )


      isym =  3     120 deg rotation - cryst. axis [0,0,1]

 cryst.   s( 3) = (     0          1          0      )
                  (    -1         -1          0      )
                  (     0          0          1      )

 cart.    s( 3) = ( -0.5000000 -0.8660254  0.0000000 )
                  (  0.8660254 -0.5000000  0.0000000 )
                  (  0.0000000  0.0000000  1.0000000 )


      isym =  4     120 deg rotation - cryst. axis [0,0,-1]

 cryst.   s( 4) = (    -1         -1          0      )
                  (     1          0          0      )
                  (     0          0          1      )

 cart.    s( 4) = ( -0.5000000  0.8660254  0.0000000 )
                  ( -0.8660254 -0.5000000  0.0000000 )
                  (  0.0000000  0.0000000  1.0000000 )


      isym =  5     180 deg rotation - cryst. axis [0,1,0]

 cryst.   s( 5) = (    -1         -1          0      )
                  (     0          1          0      )
                  (     0          0         -1      )

 cart.    s( 5) = ( -0.5000000 -0.8660254  0.0000000 )
                  ( -0.8660254  0.5000000  0.0000000 )
                  (  0.0000000  0.0000000 -1.0000000 )


      isym =  6     180 deg rotation - cryst. axis [1,1,0]

 cryst.   s( 6) = (     0          1          0      )
                  (     1          0          0      )
                  (     0          0         -1      )

 cart.    s( 6) = ( -0.5000000  0.8660254  0.0000000 )
                  (  0.8660254  0.5000000  0.0000000 )
                  (  0.0000000  0.0000000 -1.0000000 )


      isym =  7     inversion

 cryst.   s( 7) = (    -1          0          0      )
                  (     0         -1          0      )
                  (     0          0         -1      )

 cart.    s( 7) = ( -1.0000000  0.0000000  0.0000000 )
                  (  0.0000000 -1.0000000  0.0000000 )
                  (  0.0000000  0.0000000 -1.0000000 )


      isym =  8     inv. 180 deg rotation - cart. axis [1,0,0]

 cryst.   s( 8) = (    -1          0          0      )
                  (     1          1          0      )
                  (     0          0          1      )

 cart.    s( 8) = ( -1.0000000  0.0000000  0.0000000 )
                  (  0.0000000  1.0000000  0.0000000 )
                  (  0.0000000  0.0000000  1.0000000 )


      isym =  9     inv. 120 deg rotation - cryst. axis [0,0,1]

 cryst.   s( 9) = (     0         -1          0      )
                  (     1          1          0      )
                  (     0          0         -1      )

 cart.    s( 9) = (  0.5000000  0.8660254  0.0000000 )
                  ( -0.8660254  0.5000000  0.0000000 )
                  (  0.0000000  0.0000000 -1.0000000 )


      isym = 10     inv. 120 deg rotation - cryst. axis [0,0,-1]

 cryst.   s(10) = (     1          1          0      )
                  (    -1          0          0      )
                  (     0          0         -1      )

 cart.    s(10) = (  0.5000000 -0.8660254  0.0000000 )
                  (  0.8660254  0.5000000  0.0000000 )
                  (  0.0000000  0.0000000 -1.0000000 )


      isym = 11     inv. 180 deg rotation - cryst. axis [0,1,0]

 cryst.   s(11) = (     1          1          0      )
                  (     0         -1          0      )
                  (     0          0          1      )

 cart.    s(11) = (  0.5000000  0.8660254  0.0000000 )
                  (  0.8660254 -0.5000000  0.0000000 )
                  (  0.0000000  0.0000000  1.0000000 )


      isym = 12     inv. 180 deg rotation - cryst. axis [1,1,0]

 cryst.   s(12) = (     0         -1          0      )
                  (    -1          0          0      )
                  (     0          0          1      )

 cart.    s(12) = (  0.5000000 -0.8660254  0.0000000 )
                  ( -0.8660254 -0.5000000  0.0000000 )
                  (  0.0000000  0.0000000  1.0000000 )


   Cartesian axes

     site n.     atom                  positions (alat units)
         1           Ni  tau(   1) = (   0.0000000   0.0000000   3.1421749  )
         2           I   tau(   2) = (  -0.0000000   0.5773503   3.5289144  )
         3           I   tau(   3) = (   0.5000000   0.2886751   2.7554354  )

   Crystallographic axes

     site n.     atom                  positions (cryst. coord.)
         1           Ni  tau(   1) = (  0.0000000  0.0000000  0.5000000  )
         2           I   tau(   2) = (  0.3333333  0.6666667  0.5615401  )
         3           I   tau(   3) = (  0.6666667  0.3333333  0.4384599  )

     number of k points=    10  Marzari-Vanderbilt smearing, width (Ry)=  0.0015
                       cart. coord. in units 2pi/alat
        k(    1) = (   0.0000000   0.0000000   0.0000000), wk =   0.0312500
        k(    2) = (   0.0000000   0.1443376   0.0000000), wk =   0.1875000
        k(    3) = (   0.0000000   0.2886751   0.0000000), wk =   0.1875000
        k(    4) = (   0.0000000   0.4330127   0.0000000), wk =   0.1875000
        k(    5) = (   0.0000000  -0.5773503   0.0000000), wk =   0.0937500
        k(    6) = (   0.1250000   0.2165064   0.0000000), wk =   0.1875000
        k(    7) = (   0.1250000   0.3608439   0.0000000), wk =   0.3750000
        k(    8) = (   0.1250000   0.5051815   0.0000000), wk =   0.3750000
        k(    9) = (   0.2500000   0.4330127   0.0000000), wk =   0.1875000
        k(   10) = (   0.2500000   0.5773503   0.0000000), wk =   0.1875000

                       cryst. coord.
        k(    1) = (   0.0000000   0.0000000   0.0000000), wk =   0.0312500
        k(    2) = (   0.0000000   0.1250000   0.0000000), wk =   0.1875000
        k(    3) = (   0.0000000   0.2500000   0.0000000), wk =   0.1875000
        k(    4) = (   0.0000000   0.3750000   0.0000000), wk =   0.1875000
        k(    5) = (   0.0000000  -0.5000000   0.0000000), wk =   0.0937500
        k(    6) = (   0.1250000   0.1250000   0.0000000), wk =   0.1875000
        k(    7) = (   0.1250000   0.2500000   0.0000000), wk =   0.3750000
        k(    8) = (   0.1250000   0.3750000   0.0000000), wk =   0.3750000
        k(    9) = (   0.2500000   0.2500000   0.0000000), wk =   0.1875000
        k(   10) = (   0.2500000   0.3750000   0.0000000), wk =   0.1875000

     Dense  grid:   409943 G-vectors     FFT dimensions: (  54,  54, 360)

     Smooth grid:   385631 G-vectors     FFT dimensions: (  54,  54, 324)

     Dynamical RAM for                 wfc:       0.73 MB

     Dynamical RAM for     wfc (w. buffer):       8.08 MB

     Dynamical RAM for           str. fact:       0.63 MB

     Dynamical RAM for           local pot:       0.00 MB

     Dynamical RAM for          nlocal pot:       1.98 MB

     Dynamical RAM for                qrad:       3.59 MB

     Dynamical RAM for          rho,v,vnew:       2.14 MB

     Dynamical RAM for               rhoin:       0.71 MB

     Dynamical RAM for            rho*nmix:       5.00 MB

     Dynamical RAM for           G-vectors:       1.32 MB

     Dynamical RAM for          h,s,v(r/c):       0.07 MB

     Dynamical RAM for          <psi|beta>:       0.02 MB

     Dynamical RAM for                 psi:       1.47 MB

     Dynamical RAM for                hpsi:       1.47 MB

     Dynamical RAM for      wfcinit/wfcrot:       1.48 MB

     Estimated static dynamical RAM per process >      21.40 MB

     Estimated max dynamical RAM per process >      29.43 MB

     Estimated total dynamical RAM >     588.57 MB

     Initial potential from superposition of free atoms

     starting charge      31.9996, renormalised to      32.0000

     negative rho (up, down):  3.818E-06 0.000E+00
     Starting wfcs are   18 randomized atomic wfcs +    2 random wfcs

     total cpu time spent up to now is        1.9 secs

     Self-consistent Calculation

     iteration #  1     ecut=   120.00 Ry     beta= 0.40
     Davidson diagonalization with overlap

---- Real-time Memory Report at c_bands before calling an iterative solver
           119 MiB given to the printing process from OS
             0 MiB allocation reported by mallinfo(arena+hblkhd)
        225803 MiB available memory on the node where the printing process lives
------------------
     ethr =  1.00E-02,  avg # of iterations =  4.8

     negative rho (up, down):  1.301E-06 0.000E+00

     total cpu time spent up to now is        2.6 secs

     total energy              =    -386.74579811 Ry
     estimated scf accuracy    <       1.16234306 Ry

     iteration #  2     ecut=   120.00 Ry     beta= 0.40
     Davidson diagonalization with overlap

---- Real-time Memory Report at c_bands before calling an iterative solver
           129 MiB given to the printing process from OS
             0 MiB allocation reported by mallinfo(arena+hblkhd)
        225642 MiB available memory on the node where the printing process lives
------------------
     ethr =  3.63E-03,  avg # of iterations =  3.6
     Minimization algorithm failed to find Fermi energy: reverting to bisection
     Possible cause: smearing is larger than the electronic band-gap.

     negative rho (up, down):  7.922E-08 0.000E+00

     total cpu time spent up to now is        3.3 secs

     total energy              =    -386.17128715 Ry
     estimated scf accuracy    <      10.35170119 Ry

     iteration #  3     ecut=   120.00 Ry     beta= 0.40
     Davidson diagonalization with overlap

---- Real-time Memory Report at c_bands before calling an iterative solver
           137 MiB given to the printing process from OS
             0 MiB allocation reported by mallinfo(arena+hblkhd)
        225488 MiB available memory on the node where the printing process lives
------------------
     ethr =  3.63E-03,  avg # of iterations =  2.6

     negative rho (up, down):  1.150E-07 0.000E+00

     total cpu time spent up to now is        3.9 secs

     total energy              =    -387.30444981 Ry
     estimated scf accuracy    <       0.04325160 Ry

     iteration #  4     ecut=   120.00 Ry     beta= 0.40
     Davidson diagonalization with overlap

---- Real-time Memory Report at c_bands before calling an iterative solver
           137 MiB given to the printing process from OS
             0 MiB allocation reported by mallinfo(arena+hblkhd)
        225469 MiB available memory on the node where the printing process lives
------------------
     ethr =  1.35E-04,  avg # of iterations =  4.1

     negative rho (up, down):  2.876E-08 0.000E+00

     total cpu time spent up to now is        4.6 secs

     total energy              =    -387.30527792 Ry
     estimated scf accuracy    <       0.02829576 Ry

     iteration #  5     ecut=   120.00 Ry     beta= 0.40
     Davidson diagonalization with overlap

---- Real-time Memory Report at c_bands before calling an iterative solver
           137 MiB given to the printing process from OS
             0 MiB allocation reported by mallinfo(arena+hblkhd)
        225455 MiB available memory on the node where the printing process lives
------------------
     ethr =  8.84E-05,  avg # of iterations =  2.2

     negative rho (up, down):  1.825E-07 0.000E+00

     total cpu time spent up to now is        5.1 secs

     total energy              =    -387.30563775 Ry
     estimated scf accuracy    <       0.00385914 Ry

     iteration #  6     ecut=   120.00 Ry     beta= 0.40
     Davidson diagonalization with overlap

---- Real-time Memory Report at c_bands before calling an iterative solver
           137 MiB given to the printing process from OS
             0 MiB allocation reported by mallinfo(arena+hblkhd)
        225449 MiB available memory on the node where the printing process lives
------------------
     ethr =  1.21E-05,  avg # of iterations =  6.5

     negative rho (up, down):  6.798E-08 0.000E+00

     total cpu time spent up to now is        5.9 secs

     total energy              =    -387.30607396 Ry
     estimated scf accuracy    <       0.00029912 Ry

     iteration #  7     ecut=   120.00 Ry     beta= 0.40
     Davidson diagonalization with overlap

---- Real-time Memory Report at c_bands before calling an iterative solver
           138 MiB given to the printing process from OS
             0 MiB allocation reported by mallinfo(arena+hblkhd)
        225444 MiB available memory on the node where the printing process lives
------------------
     ethr =  9.35E-07,  avg # of iterations =  3.4

     negative rho (up, down):  6.063E-08 0.000E+00

     total cpu time spent up to now is        6.6 secs

     total energy              =    -387.30607069 Ry
     estimated scf accuracy    <       0.00044856 Ry

     iteration #  8     ecut=   120.00 Ry     beta= 0.40
     Davidson diagonalization with overlap

---- Real-time Memory Report at c_bands before calling an iterative solver
           139 MiB given to the printing process from OS
             0 MiB allocation reported by mallinfo(arena+hblkhd)
        225437 MiB available memory on the node where the printing process lives
------------------
     ethr =  9.35E-07,  avg # of iterations =  2.4

     negative rho (up, down):  5.033E-08 0.000E+00

     total cpu time spent up to now is        7.2 secs

     total energy              =    -387.30609165 Ry
     estimated scf accuracy    <       0.00002771 Ry

     iteration #  9     ecut=   120.00 Ry     beta= 0.40
     Davidson diagonalization with overlap

---- Real-time Memory Report at c_bands before calling an iterative solver
           141 MiB given to the printing process from OS
             0 MiB allocation reported by mallinfo(arena+hblkhd)
        225420 MiB available memory on the node where the printing process lives
------------------
     ethr =  8.66E-08,  avg # of iterations =  3.6

     negative rho (up, down):  2.082E-08 0.000E+00

     total cpu time spent up to now is        7.8 secs

     total energy              =    -387.30609883 Ry
     estimated scf accuracy    <       0.00000512 Ry

     iteration # 10     ecut=   120.00 Ry     beta= 0.40
     Davidson diagonalization with overlap

---- Real-time Memory Report at c_bands before calling an iterative solver
           141 MiB given to the printing process from OS
             0 MiB allocation reported by mallinfo(arena+hblkhd)
        225404 MiB available memory on the node where the printing process lives
------------------
     ethr =  1.60E-08,  avg # of iterations =  1.0

     negative rho (up, down):  3.408E-08 0.000E+00

     total cpu time spent up to now is        8.4 secs

     total energy              =    -387.30609780 Ry
     estimated scf accuracy    <       0.00000408 Ry

     iteration # 11     ecut=   120.00 Ry     beta= 0.40
     Davidson diagonalization with overlap

---- Real-time Memory Report at c_bands before calling an iterative solver
           141 MiB given to the printing process from OS
             0 MiB allocation reported by mallinfo(arena+hblkhd)
        225404 MiB available memory on the node where the printing process lives
------------------
     ethr =  1.28E-08,  avg # of iterations =  2.0

     total cpu time spent up to now is        8.9 secs

     End of self-consistent calculation

          k = 0.0000 0.0000 0.0000 ( 48107 PWs)   bands (ev):

  -104.6201 -65.0150 -65.0136 -65.0136 -15.7513 -14.8291  -6.7367  -4.8288
    -4.8288  -3.7397  -3.2447  -3.2447  -2.9895  -2.8282  -2.8282  -1.2995
    -1.2995   1.8462   2.5795   2.7236

     occupation numbers
     1.0000   1.0000   1.0000   1.0000   1.0000   1.0000   1.0000   1.0000
     1.0000   1.0000   1.0000   1.0000   1.0000   1.0000   1.0000   0.0000
     0.0000   0.0000   0.0000   0.0000

          k = 0.0000 0.1443 0.0000 ( 48142 PWs)   bands (ev):

  -104.6201 -65.0150 -65.0136 -65.0136 -15.6332 -14.7635  -6.6204  -5.1787
    -4.8231  -3.9603  -3.5376  -3.5282  -3.1599  -2.7327  -2.7216  -1.7876
    -1.3959   2.3088   2.8659   3.0901

     occupation numbers
     1.0000   1.0000   1.0000   1.0000   1.0000   1.0000   1.0000   1.0000
     1.0000   1.0000   1.0000   1.0000   1.0000   1.0000   1.0000   0.6588
     0.0000   0.0000   0.0000   0.0000

          k = 0.0000 0.2887 0.0000 ( 48148 PWs)   bands (ev):

  -104.6201 -65.0149 -65.0138 -65.0136 -15.3132 -14.6058  -6.4437  -5.8873
    -5.0940  -4.8110  -3.9598  -3.6667  -3.2116  -2.7920  -2.7562  -2.0699
    -1.5038   2.1370   2.9958   3.2864

     occupation numbers
     1.0000   1.0000   1.0000   1.0000   1.0000   1.0000   1.0000   1.0000
     1.0000   1.0000   1.0000   1.0000   1.0000   1.0000   1.0000   1.0000
     0.0000   0.0000   0.0000   0.0000

          k = 0.0000 0.4330 0.0000 ( 48212 PWs)   bands (ev):

  -104.6201 -65.0149 -65.0140 -65.0137 -14.9083 -14.4718  -7.0616  -6.3489
    -5.1748  -4.7982  -4.2912  -4.2173  -3.2526  -2.9574  -2.8672  -1.7993
    -1.5222   1.3354   3.1387   3.5974

     occupation numbers
     1.0000   1.0000   1.0000   1.0000   1.0000   1.0000   1.0000   1.0000
     1.0000   1.0000   1.0000   1.0000   1.0000   1.0000   1.0000   1.0058
     0.0000   0.0000   0.0000   0.0000

          k = 0.0000-0.5774 0.0000 ( 48254 PWs)   bands (ev):

  -104.6201 -65.0149 -65.0141 -65.0137 -14.6668 -14.4671  -7.4632  -6.5451
    -4.8076  -4.7896  -4.5995  -4.4180  -3.2719  -3.0318  -2.9609  -1.6638
    -1.5193   1.0674   3.0239   3.8203

     occupation numbers
     1.0000   1.0000   1.0000   1.0000   1.0000   1.0000   1.0000   1.0000
     1.0000   1.0000   1.0000   1.0000   1.0000   1.0000   1.0000   0.0000
     0.0000   0.0000   0.0000   0.0000

          k = 0.1250 0.2165 0.0000 ( 48125 PWs)   bands (ev):

  -104.6201 -65.0149 -65.0138 -65.0136 -15.4136 -14.6511  -6.4515  -5.6226
    -4.8698  -4.8151  -4.0328  -3.5233  -3.1389  -2.7491  -2.7368  -1.9060
    -1.7471   2.8441   2.9791   3.0930

     occupation numbers
     1.0000   1.0000   1.0000   1.0000   1.0000   1.0000   1.0000   1.0000
     1.0000   1.0000   1.0000   1.0000   1.0000   1.0000   1.0000   1.0000
     0.0018   0.0000   0.0000   0.0000

          k = 0.1250 0.3608 0.0000 ( 48162 PWs)   bands (ev):

  -104.6201 -65.0149 -65.0139 -65.0137 -15.0470 -14.5001  -6.6311  -6.1613
    -5.3116  -4.9812  -4.4908  -3.9639  -3.1257  -2.8819  -2.7854  -1.9902
    -1.7163   2.1586   3.3553   3.7158

     occupation numbers
     1.0000   1.0000   1.0000   1.0000   1.0000   1.0000   1.0000   1.0000
     1.0000   1.0000   1.0000   1.0000   1.0000   1.0000   1.0000   1.0000
     0.0000   0.0000   0.0000   0.0000

          k = 0.1250 0.5052 0.0000 ( 48212 PWs)   bands (ev):

  -104.6201 -65.0149 -65.0140 -65.0137 -14.6980 -14.4394  -7.2517  -6.4302
    -5.1705  -4.8843  -4.7960  -4.4446  -3.1154  -3.0090  -2.8888  -1.8598
    -1.6770   1.5979   3.6470   4.0702

     occupation numbers
     1.0000   1.0000   1.0000   1.0000   1.0000   1.0000   1.0000   1.0000
     1.0000   1.0000   1.0000   1.0000   1.0000   1.0000   1.0000   1.0000
     0.0000   0.0000   0.0000   0.0000

          k = 0.2500 0.4330 0.0000 ( 48187 PWs)   bands (ev):

  -104.6201 -65.0149 -65.0140 -65.0138 -14.7235 -14.4175  -6.9117  -6.3384
    -5.6802  -4.9729  -4.9587  -4.3658  -3.0341  -3.0024  -2.8012  -2.1362
    -1.7179   2.2246   3.4344   4.6890

     occupation numbers
     1.0000   1.0000   1.0000   1.0000   1.0000   1.0000   1.0000   1.0000
     1.0000   1.0000   1.0000   1.0000   1.0000   1.0000   1.0000   1.0000
     0.0000   0.0000   0.0000   0.0000

          k = 0.2500 0.5774 0.0000 ( 48231 PWs)   bands (ev):

  -104.6201 -65.0149 -65.0140 -65.0139 -14.5294 -14.4312  -7.0593  -6.2939
    -6.0112  -5.2044  -4.6982  -4.6501  -3.0935  -2.9121  -2.8582  -2.0481
    -1.8469   2.0419   4.0856   4.2389

     occupation numbers
     1.0000   1.0000   1.0000   1.0000   1.0000   1.0000   1.0000   1.0000
     1.0000   1.0000   1.0000   1.0000   1.0000   1.0000   1.0000   1.0000
     1.0003   0.0000   0.0000   0.0000

     the Fermi energy is    -1.7806 ev

!    total energy              =    -387.30609821 Ry
     estimated scf accuracy    <       0.00000030 Ry
     smearing contrib. (-TS)   =      -0.00001109 Ry
     internal energy E=F+TS    =    -387.30608712 Ry

     The total energy is F=E-TS. E is the sum of the following terms:
     one-electron contribution =   -1776.90163724 Ry
     hartree contribution      =     889.72863336 Ry
     xc contribution           =     -58.76671118 Ry
     ewald contribution        =     558.63362793 Ry

     convergence has been achieved in  11 iterations

     Writing all to output data dir ./tmp/c.save/

     init_run     :      1.71s CPU      1.73s WALL (       1 calls)
     electrons    :      7.04s CPU      7.10s WALL (       1 calls)

     Called by init_run:
     wfcinit      :      0.18s CPU      0.19s WALL (       1 calls)
     wfcinit:atom :      0.01s CPU      0.01s WALL (      10 calls)
     wfcinit:wfcr :      0.17s CPU      0.17s WALL (      10 calls)
     potinit      :      0.37s CPU      0.37s WALL (       1 calls)
     hinit0       :      1.06s CPU      1.07s WALL (       1 calls)

     Called by electrons:
     c_bands      :      5.77s CPU      5.80s WALL (      11 calls)
     sum_band     :      0.91s CPU      0.92s WALL (      11 calls)
     v_of_rho     :      0.29s CPU      0.29s WALL (      12 calls)
     v_h          :      0.02s CPU      0.02s WALL (      12 calls)
     v_xc         :      0.27s CPU      0.27s WALL (      12 calls)
     mix_rho      :      0.06s CPU      0.07s WALL (      11 calls)

     Called by c_bands:
     init_us_2    :      0.21s CPU      0.21s WALL (     230 calls)
     init_us_2:cp :      0.21s CPU      0.21s WALL (     230 calls)
     cegterg      :      4.89s CPU      4.91s WALL (     110 calls)

     Called by sum_band:
     sum_band:wei :      0.00s CPU      0.00s WALL (      11 calls)
     sum_band:loo :      0.86s CPU      0.87s WALL (      11 calls)
     sum_band:buf :      0.02s CPU      0.02s WALL (     110 calls)
     sum_band:ini :      0.10s CPU      0.10s WALL (     110 calls)

     Called by *egterg:
     cdiaghg      :      0.20s CPU      0.20s WALL (     472 calls)
     cegterg:over :      0.25s CPU      0.25s WALL (     362 calls)
     cegterg:upda :      0.10s CPU      0.10s WALL (     362 calls)
     cegterg:last :      0.10s CPU      0.10s WALL (     208 calls)
     h_psi        :      4.19s CPU      4.21s WALL (     482 calls)
     g_psi        :      0.03s CPU      0.03s WALL (     362 calls)

     Called by h_psi:
     h_psi:calbec :      0.27s CPU      0.27s WALL (     482 calls)
     vloc_psi     :      3.67s CPU      3.69s WALL (     482 calls)
     add_vuspsi   :      0.20s CPU      0.20s WALL (     482 calls)

     General routines
     calbec       :      0.27s CPU      0.27s WALL (     482 calls)
     fft          :      0.31s CPU      0.32s WALL (     142 calls)
     ffts         :      0.02s CPU      0.02s WALL (      23 calls)
     fftw         :      3.79s CPU      3.81s WALL (   13316 calls)
     interpolate  :      0.02s CPU      0.02s WALL (      12 calls)

     Parallel routines

     PWSCF        :      8.95s CPU      9.19s WALL


   This run was terminated on:  15:34:37  27Jun2023

=------------------------------------------------------------------------------=
   JOB DONE.
=------------------------------------------------------------------------------=
