
     Program PWSCF v.6.8 starts on  8Mar2023 at 17: 5:52 

     This program is part of the open-source Quantum ESPRESSO suite
     for quantum simulation of materials; please cite
         "P. Giannozzi et al., J. Phys.:Condens. Matter 21 395502 (2009);
         "P. Giannozzi et al., J. Phys.:Condens. Matter 29 465901 (2017);
         "P. Giannozzi et al., J. Chem. Phys. 152 154105 (2020);
          URL http://www.quantum-espresso.org", 
     in publications or presentations arising from this work. More details at
     http://www.quantum-espresso.org/quote

     Parallel version (MPI & OpenMP), running on      80 processor cores
     Number of MPI processes:                80
     Threads/MPI process:                     1

     MPI processes distributed on     2 nodes
     R & G space division:  proc/nbgrp/npool/nimage =      80
     86142 MiB available memory on the printing compute node when the environment starts
 
     Reading input from nscf.in

     Current dimensions of program PWSCF are:
     Max number of different atomic species (ntypx) = 10
     Max number of k-points (npk) =  40000
     Max angular momentum in pseudopotentials (lmaxx) =  4

     Atomic positions and unit cell read from directory:
     ./tmp/nso.save/
     Atomic positions from file used, from input discarded
 

     Fixed quantization axis for GGA:     0.000000    0.000000    1.000000
     Message from routine setup:
     using ibrav=0 with symmetry is DISCOURAGED, use correct ibrav instead

     Subspace diagonalization in iterative solution of the eigenvalue problem:
     a serial algorithm will be used

 
     Parallelization info
     --------------------
     sticks:   dense  smooth     PW     G-vecs:    dense   smooth      PW
     Min          23      22      6                 5111     4806     684
     Max          24      23      7                 5135     4845     709
     Sum        1879    1789    499               409943   385631   55807
 
     Using Slab Decomposition
 


     bravais-lattice index     =            0
     lattice parameter (alat)  =       7.3605  a.u.
     unit-cell volume          =    2170.2486 (a.u.)^3
     number of atoms/cell      =            3
     number of atomic types    =            2
     number of electrons       =        32.00
     number of Kohn-Sham states=           40
     kinetic-energy cutoff     =     120.0000  Ry
     charge density cutoff     =     500.0000  Ry
     Exchange-correlation= PBE
                           (   1   4   3   4   0   0   0)
     Noncollinear calculation with spin-orbit


     celldm(1)=   7.360481  celldm(2)=   0.000000  celldm(3)=   0.000000
     celldm(4)=   0.000000  celldm(5)=   0.000000  celldm(6)=   0.000000

     crystal axes: (cart. coord. in units of alat)
               a(1) = (   1.000000   0.000000   0.000000 )  
               a(2) = (  -0.500000   0.866025   0.000000 )  
               a(3) = (   0.000000   0.000000   6.284350 )  

     reciprocal axes: (cart. coord. in units 2 pi/alat)
               b(1) = (  1.000000  0.577350  0.000000 )  
               b(2) = (  0.000000  1.154701  0.000000 )  
               b(3) = (  0.000000  0.000000  0.159125 )  


     PseudoPot. # 1 for Ni read from file:
     pseudo/Ni.upf
     MD5 check sum: 14a7e289c5fff9cacaba393040e62f02
     Pseudo is Norm-conserving + core correction, Zval = 18.0
     Generated using ONCVPSP code by D. R. Hamann
     Using radial grid of 1372 points, 10 beta functions with: 
                l(1) =   0
                l(2) =   0
                l(3) =   1
                l(4) =   1
                l(5) =   1
                l(6) =   1
                l(7) =   2
                l(8) =   2
                l(9) =   2
               l(10) =   2

     PseudoPot. # 2 for I  read from file:
     pseudo/I.upf
     MD5 check sum: 301f7009ca0a2b18b0adf53dca02d42f
     Pseudo is Norm-conserving + core correction, Zval =  7.0
     Generated using ONCVPSP code by D. R. Hamann
     Using radial grid of 1210 points, 10 beta functions with: 
                l(1) =   0
                l(2) =   0
                l(3) =   1
                l(4) =   1
                l(5) =   1
                l(6) =   1
                l(7) =   2
                l(8) =   2
                l(9) =   2
               l(10) =   2

     atomic species   valence    mass     pseudopotential
        Ni            18.00    58.69340     Ni( 1.00)
        I              7.00   126.90447     I ( 1.00)

     12 Sym. Ops., with inversion, found


                                    s                        frac. trans.

      isym =  1     identity                                     

 Time Reversal            0
 cryst.   s( 1) = (     1          0          0      )
                  (     0          1          0      )
                  (     0          0          1      )

 cart.    s( 1) = (  1.0000000 -0.0000000  0.0000000 )
                  (  0.0000000  1.0000000  0.0000000 )
                  (  0.0000000  0.0000000  1.0000000 )


      isym =  2     180 deg rotation - cart. axis [1,0,0]        

 Time Reversal            1
 cryst.   s( 2) = (     1          0          0      )
                  (    -1         -1          0      )
                  (     0          0         -1      )

 cart.    s( 2) = (  1.0000000  0.0000000  0.0000000 )
                  (  0.0000000 -1.0000000  0.0000000 )
                  (  0.0000000  0.0000000 -1.0000000 )


      isym =  3     120 deg rotation - cryst. axis [0,0,1]       

 Time Reversal            0
 cryst.   s( 3) = (     0          1          0      )
                  (    -1         -1          0      )
                  (     0          0          1      )

 cart.    s( 3) = ( -0.5000000 -0.8660254  0.0000000 )
                  (  0.8660254 -0.5000000  0.0000000 )
                  (  0.0000000  0.0000000  1.0000000 )


      isym =  4     120 deg rotation - cryst. axis [0,0,-1]      

 Time Reversal            0
 cryst.   s( 4) = (    -1         -1          0      )
                  (     1          0          0      )
                  (     0          0          1      )

 cart.    s( 4) = ( -0.5000000  0.8660254  0.0000000 )
                  ( -0.8660254 -0.5000000  0.0000000 )
                  (  0.0000000  0.0000000  1.0000000 )


      isym =  5     180 deg rotation - cryst. axis [0,1,0]       

 Time Reversal            1
 cryst.   s( 5) = (    -1         -1          0      )
                  (     0          1          0      )
                  (     0          0         -1      )

 cart.    s( 5) = ( -0.5000000 -0.8660254  0.0000000 )
                  ( -0.8660254  0.5000000  0.0000000 )
                  (  0.0000000  0.0000000 -1.0000000 )


      isym =  6     180 deg rotation - cryst. axis [1,1,0]       

 Time Reversal            1
 cryst.   s( 6) = (     0          1          0      )
                  (     1          0          0      )
                  (     0          0         -1      )

 cart.    s( 6) = ( -0.5000000  0.8660254  0.0000000 )
                  (  0.8660254  0.5000000  0.0000000 )
                  (  0.0000000  0.0000000 -1.0000000 )


      isym =  7     inversion                                    

 Time Reversal            0
 cryst.   s( 7) = (    -1          0          0      )
                  (     0         -1          0      )
                  (     0          0         -1      )

 cart.    s( 7) = ( -1.0000000  0.0000000  0.0000000 )
                  (  0.0000000 -1.0000000  0.0000000 )
                  (  0.0000000  0.0000000 -1.0000000 )


      isym =  8     inv. 180 deg rotation - cart. axis [1,0,0]   

 Time Reversal            1
 cryst.   s( 8) = (    -1          0          0      )
                  (     1          1          0      )
                  (     0          0          1      )

 cart.    s( 8) = ( -1.0000000 -0.0000000  0.0000000 )
                  (  0.0000000  1.0000000  0.0000000 )
                  (  0.0000000  0.0000000  1.0000000 )


      isym =  9     inv. 120 deg rotation - cryst. axis [0,0,1]  

 Time Reversal            0
 cryst.   s( 9) = (     0         -1          0      )
                  (     1          1          0      )
                  (     0          0         -1      )

 cart.    s( 9) = (  0.5000000  0.8660254  0.0000000 )
                  ( -0.8660254  0.5000000  0.0000000 )
                  (  0.0000000  0.0000000 -1.0000000 )


      isym = 10     inv. 120 deg rotation - cryst. axis [0,0,-1] 

 Time Reversal            0
 cryst.   s(10) = (     1          1          0      )
                  (    -1          0          0      )
                  (     0          0         -1      )

 cart.    s(10) = (  0.5000000 -0.8660254  0.0000000 )
                  (  0.8660254  0.5000000  0.0000000 )
                  (  0.0000000  0.0000000 -1.0000000 )


      isym = 11     inv. 180 deg rotation - cryst. axis [0,1,0]  

 Time Reversal            1
 cryst.   s(11) = (     1          1          0      )
                  (     0         -1          0      )
                  (     0          0          1      )

 cart.    s(11) = (  0.5000000  0.8660254  0.0000000 )
                  (  0.8660254 -0.5000000  0.0000000 )
                  (  0.0000000  0.0000000  1.0000000 )


      isym = 12     inv. 180 deg rotation - cryst. axis [1,1,0]  

 Time Reversal            1
 cryst.   s(12) = (     0         -1          0      )
                  (    -1          0          0      )
                  (     0          0          1      )

 cart.    s(12) = (  0.5000000 -0.8660254  0.0000000 )
                  ( -0.8660254 -0.5000000  0.0000000 )
                  (  0.0000000  0.0000000  1.0000000 )


   Cartesian axes

     site n.     atom                  positions (alat units)
         1           Ni  tau(   1) = (   0.0000000   0.0000000   3.1421749  )
         2           I   tau(   2) = (  -0.0000000   0.5773503   3.5289144  )
         3           I   tau(   3) = (   0.5000000   0.2886751   2.7554354  )

   Crystallographic axes

     site n.     atom                  positions (cryst. coord.)
         1           Ni  tau(   1) = (  0.0000000  0.0000000  0.5000000  )
         2           I   tau(   2) = (  0.3333333  0.6666667  0.5615401  )
         3           I   tau(   3) = (  0.6666667  0.3333333  0.4384599  )

     number of k points=    30  Marzari-Vanderbilt smearing, width (Ry)=  0.0015
                       cart. coord. in units 2pi/alat
        k(    1) = (   0.0000000   0.0000000   0.0000000), wk =   0.0039062
        k(    2) = (   0.0000000   0.0721688   0.0000000), wk =   0.0234375
        k(    3) = (   0.0000000   0.1443376   0.0000000), wk =   0.0234375
        k(    4) = (   0.0000000   0.2165064   0.0000000), wk =   0.0234375
        k(    5) = (   0.0000000   0.2886751   0.0000000), wk =   0.0234375
        k(    6) = (   0.0000000   0.3608439   0.0000000), wk =   0.0234375
        k(    7) = (   0.0000000   0.4330127   0.0000000), wk =   0.0234375
        k(    8) = (   0.0000000   0.5051815   0.0000000), wk =   0.0234375
        k(    9) = (   0.0000000  -0.5773503   0.0000000), wk =   0.0117188
        k(   10) = (   0.0625000   0.1082532   0.0000000), wk =   0.0234375
        k(   11) = (   0.0625000   0.1804220   0.0000000), wk =   0.0468750
        k(   12) = (   0.0625000   0.2525907   0.0000000), wk =   0.0468750
        k(   13) = (   0.0625000   0.3247595   0.0000000), wk =   0.0468750
        k(   14) = (   0.0625000   0.3969283   0.0000000), wk =   0.0468750
        k(   15) = (   0.0625000   0.4690971   0.0000000), wk =   0.0468750
        k(   16) = (   0.0625000   0.5412659   0.0000000), wk =   0.0468750
        k(   17) = (   0.1250000   0.2165064   0.0000000), wk =   0.0234375
        k(   18) = (   0.1250000   0.2886751   0.0000000), wk =   0.0468750
        k(   19) = (   0.1250000   0.3608439   0.0000000), wk =   0.0468750
        k(   20) = (   0.1250000   0.4330127   0.0000000), wk =   0.0468750
        k(   21) = (   0.1250000   0.5051815   0.0000000), wk =   0.0468750
        k(   22) = (   0.1250000   0.5773503   0.0000000), wk =   0.0234375
        k(   23) = (   0.1875000   0.3247595   0.0000000), wk =   0.0234375
        k(   24) = (   0.1875000   0.3969283   0.0000000), wk =   0.0468750
        k(   25) = (   0.1875000   0.4690971   0.0000000), wk =   0.0468750
        k(   26) = (   0.1875000   0.5412659   0.0000000), wk =   0.0468750
        k(   27) = (   0.2500000   0.4330127   0.0000000), wk =   0.0234375
        k(   28) = (   0.2500000   0.5051815   0.0000000), wk =   0.0468750
        k(   29) = (   0.2500000   0.5773503   0.0000000), wk =   0.0234375
        k(   30) = (   0.3125000   0.5412659   0.0000000), wk =   0.0234375

                       cryst. coord.
        k(    1) = (   0.0000000   0.0000000   0.0000000), wk =   0.0039062
        k(    2) = (   0.0000000   0.0625000   0.0000000), wk =   0.0234375
        k(    3) = (   0.0000000   0.1250000   0.0000000), wk =   0.0234375
        k(    4) = (   0.0000000   0.1875000   0.0000000), wk =   0.0234375
        k(    5) = (   0.0000000   0.2500000   0.0000000), wk =   0.0234375
        k(    6) = (   0.0000000   0.3125000   0.0000000), wk =   0.0234375
        k(    7) = (   0.0000000   0.3750000   0.0000000), wk =   0.0234375
        k(    8) = (   0.0000000   0.4375000   0.0000000), wk =   0.0234375
        k(    9) = (   0.0000000  -0.5000000   0.0000000), wk =   0.0117188
        k(   10) = (   0.0625000   0.0625000   0.0000000), wk =   0.0234375
        k(   11) = (   0.0625000   0.1250000   0.0000000), wk =   0.0468750
        k(   12) = (   0.0625000   0.1875000   0.0000000), wk =   0.0468750
        k(   13) = (   0.0625000   0.2500000   0.0000000), wk =   0.0468750
        k(   14) = (   0.0625000   0.3125000   0.0000000), wk =   0.0468750
        k(   15) = (   0.0625000   0.3750000   0.0000000), wk =   0.0468750
        k(   16) = (   0.0625000   0.4375000   0.0000000), wk =   0.0468750
        k(   17) = (   0.1250000   0.1250000   0.0000000), wk =   0.0234375
        k(   18) = (   0.1250000   0.1875000   0.0000000), wk =   0.0468750
        k(   19) = (   0.1250000   0.2500000   0.0000000), wk =   0.0468750
        k(   20) = (   0.1250000   0.3125000   0.0000000), wk =   0.0468750
        k(   21) = (   0.1250000   0.3750000   0.0000000), wk =   0.0468750
        k(   22) = (   0.1250000   0.4375000   0.0000000), wk =   0.0234375
        k(   23) = (   0.1875000   0.1875000   0.0000000), wk =   0.0234375
        k(   24) = (   0.1875000   0.2500000   0.0000000), wk =   0.0468750
        k(   25) = (   0.1875000   0.3125000   0.0000000), wk =   0.0468750
        k(   26) = (   0.1875000   0.3750000   0.0000000), wk =   0.0468750
        k(   27) = (   0.2500000   0.2500000   0.0000000), wk =   0.0234375
        k(   28) = (   0.2500000   0.3125000   0.0000000), wk =   0.0468750
        k(   29) = (   0.2500000   0.3750000   0.0000000), wk =   0.0234375
        k(   30) = (   0.3125000   0.3125000   0.0000000), wk =   0.0234375

     Dense  grid:   409943 G-vectors     FFT dimensions: (  54,  54, 360)

     Smooth grid:   385631 G-vectors     FFT dimensions: (  54,  54, 324)

     Dynamical RAM for                 wfc:       0.73 MB

     Dynamical RAM for     wfc (w. buffer):       0.73 MB

     Dynamical RAM for           str. fact:       0.16 MB

     Dynamical RAM for           local pot:       0.00 MB

     Dynamical RAM for          nlocal pot:       0.94 MB

     Dynamical RAM for                qrad:       9.40 MB

     Dynamical RAM for          rho,v,vnew:       2.27 MB

     Dynamical RAM for           G-vectors:       0.33 MB

     Dynamical RAM for          h,s,v(r/c):       0.29 MB

     Dynamical RAM for          <psi|beta>:       0.12 MB

     Dynamical RAM for                 psi:       1.47 MB

     Dynamical RAM for                hpsi:       1.47 MB

     Dynamical RAM for      wfcinit/wfcrot:       1.14 MB

     Estimated static dynamical RAM per process >      14.95 MB

     Estimated max dynamical RAM per process >      18.31 MB

     Estimated total dynamical RAM >       1.43 GB
     Generating pointlists ...
     new r_m :   0.2867 (alat units)  2.1099 (a.u.) for type    1
     new r_m :   0.2867 (alat units)  2.1099 (a.u.) for type    2

     The potential is recalculated from file :
     ./tmp/nso.save/charge-density

     Starting wfcs are   36 randomized atomic wfcs +    4 random wfcs

     Band Structure Calculation
     Davidson diagonalization with overlap

     Computing kpt #:     1  of    30
     total cpu time spent up to now is        3.0 secs

     Computing kpt #:     2  of    30
     total cpu time spent up to now is        4.3 secs

     Computing kpt #:     3  of    30
     total cpu time spent up to now is        5.9 secs

     Computing kpt #:     4  of    30
     total cpu time spent up to now is        7.1 secs

     Computing kpt #:     5  of    30
     total cpu time spent up to now is        8.3 secs

     Computing kpt #:     6  of    30
     total cpu time spent up to now is        9.6 secs

     Computing kpt #:     7  of    30
     total cpu time spent up to now is       10.8 secs

     Computing kpt #:     8  of    30
     total cpu time spent up to now is       11.9 secs

     Computing kpt #:     9  of    30
     total cpu time spent up to now is       13.2 secs

     Computing kpt #:    10  of    30
     total cpu time spent up to now is       14.7 secs

     Computing kpt #:    11  of    30
     total cpu time spent up to now is       16.1 secs

     Computing kpt #:    12  of    30
     total cpu time spent up to now is       17.4 secs

     Computing kpt #:    13  of    30
     total cpu time spent up to now is       19.2 secs

     Computing kpt #:    14  of    30
     total cpu time spent up to now is       20.4 secs

     Computing kpt #:    15  of    30
     total cpu time spent up to now is       21.7 secs

     Computing kpt #:    16  of    30
     total cpu time spent up to now is       22.8 secs

     Computing kpt #:    17  of    30
     total cpu time spent up to now is       24.1 secs

     Computing kpt #:    18  of    30
     total cpu time spent up to now is       25.3 secs

     Computing kpt #:    19  of    30
     total cpu time spent up to now is       26.5 secs

     Computing kpt #:    20  of    30
     total cpu time spent up to now is       27.7 secs

     Computing kpt #:    21  of    30
     total cpu time spent up to now is       29.6 secs

     Computing kpt #:    22  of    30
     total cpu time spent up to now is       31.1 secs

     Computing kpt #:    23  of    30
     total cpu time spent up to now is       32.4 secs

     Computing kpt #:    24  of    30
     total cpu time spent up to now is       33.7 secs

     Computing kpt #:    25  of    30
     total cpu time spent up to now is       35.0 secs

     Computing kpt #:    26  of    30
     total cpu time spent up to now is       36.2 secs

     Computing kpt #:    27  of    30
     total cpu time spent up to now is       37.6 secs

     Computing kpt #:    28  of    30
     total cpu time spent up to now is       38.8 secs

     Computing kpt #:    29  of    30
     total cpu time spent up to now is       40.0 secs

     Computing kpt #:    30  of    30
     total cpu time spent up to now is       41.1 secs

     ethr =  3.12E-09,  avg # of iterations = 37.7

     total cpu time spent up to now is       41.1 secs

     End of band structure calculation

          k = 0.0000 0.0000 0.0000 ( 48107 PWs)   bands (ev):

  -105.8896-104.5563 -67.4786 -67.1046 -65.5952 -64.9117 -64.4893 -64.1695
   -15.7926 -15.5785 -14.8529 -14.6101  -6.8942  -6.7206  -5.7829  -5.6744
    -4.7143  -4.4263  -4.2024  -4.1920  -4.0509  -3.9748  -3.8392  -3.2711
    -3.2631  -3.1206  -2.8737  -2.7890  -2.4571  -2.2173  -2.2039  -1.6402
    -1.0564  -0.6528   1.7713   1.8999   2.5106   2.6128   2.6839   2.7544

     occupation numbers 
     1.0000   1.0000   1.0000   1.0000   1.0000   1.0000   1.0000   1.0000
     1.0000   1.0000   1.0000   1.0000   1.0000   1.0000   1.0000   1.0000
     1.0000   1.0000   1.0000   1.0000   1.0000   1.0000   1.0000   1.0000
     1.0000   1.0000   1.0000   1.0000   1.0000   1.0000   1.0000   0.1553
     0.0000   0.0000   0.0000   0.0000   0.0000   0.0000   0.0000   0.0000

          k = 0.0000 0.0722 0.0000 ( 48113 PWs)   bands (ev):

  -105.8896-104.5563 -67.4786 -67.1046 -65.5953 -64.9117 -64.4893 -64.1695
   -15.7623 -15.5477 -14.8362 -14.5929  -6.8644  -6.6939  -5.8058  -5.6899
    -4.7861  -4.4739  -4.2914  -4.2308  -4.0457  -3.9722  -3.7741  -3.3281
    -3.3079  -3.1767  -2.9194  -2.7838  -2.6268  -2.3227  -2.2232  -1.7619
    -1.1198  -0.7592   1.9169   2.0431   2.7043   2.7588   2.7886   2.8617

     occupation numbers 
     1.0000   1.0000   1.0000   1.0000   1.0000   1.0000   1.0000   1.0000
     1.0000   1.0000   1.0000   1.0000   1.0000   1.0000   1.0000   1.0000
     1.0000   1.0000   1.0000   1.0000   1.0000   1.0000   1.0000   1.0000
     1.0000   1.0000   1.0000   1.0000   1.0000   1.0000   1.0000   1.0000
     0.0000   0.0000   0.0000   0.0000   0.0000   0.0000   0.0000   0.0000

          k = 0.0000 0.1443 0.0000 ( 48142 PWs)   bands (ev):

  -105.8895-104.5563 -67.4787 -67.1046 -65.5953 -64.9117 -64.4893 -64.1695
   -15.6734 -15.4576 -14.7884 -14.5436  -6.7810  -6.6215  -5.8955  -5.7009
    -5.0297  -4.5660  -4.5126  -4.3016  -4.1690  -4.0257  -3.6670  -3.5303
    -3.3811  -3.2377  -3.0941  -2.8810  -2.7581  -2.4915  -2.4458  -1.9409
    -1.3349  -0.8995   2.2421   2.3649   2.8196   2.8952   2.9729   3.1114

     occupation numbers 
     1.0000   1.0000   1.0000   1.0000   1.0000   1.0000   1.0000   1.0000
     1.0000   1.0000   1.0000   1.0000   1.0000   1.0000   1.0000   1.0000
     1.0000   1.0000   1.0000   1.0000   1.0000   1.0000   1.0000   1.0000
     1.0000   1.0000   1.0000   1.0000   1.0000   1.0000   1.0000   1.0000
     0.0000   0.0000   0.0000   0.0000   0.0000   0.0000   0.0000   0.0000

          k = 0.0000 0.2165 0.0000 ( 48158 PWs)   bands (ev):

  -105.8895-104.5563 -67.4787 -67.1046 -65.5953 -64.9117 -64.4893 -64.1696
   -15.5323 -15.3143 -14.7168 -14.4697  -6.6687  -6.5344  -6.0360  -5.6976
    -5.4025  -5.0174  -4.5910  -4.5199  -4.3705  -4.0798  -3.7547  -3.6088
    -3.4624  -3.3613  -3.2338  -3.0152  -2.8291  -2.7622  -2.5992  -2.0440
    -1.5336  -0.9730   2.4522   2.6446   2.6733   2.7588   3.0106   3.1029

     occupation numbers 
     1.0000   1.0000   1.0000   1.0000   1.0000   1.0000   1.0000   1.0000
     1.0000   1.0000   1.0000   1.0000   1.0000   1.0000   1.0000   1.0000
     1.0000   1.0000   1.0000   1.0000   1.0000   1.0000   1.0000   1.0000
     1.0000   1.0000   1.0000   1.0000   1.0000   1.0000   1.0000   1.0000
     0.0000   0.0000   0.0000   0.0000   0.0000   0.0000   0.0000   0.0000

          k = 0.0000 0.2887 0.0000 ( 48148 PWs)   bands (ev):

  -105.8895-104.5563 -67.4787 -67.1046 -65.5954 -64.9118 -64.4893 -64.1697
   -15.3503 -15.1292 -14.6335 -14.3837  -6.6142  -6.5101  -6.2100  -5.8440
    -5.6965  -5.4473  -4.9768  -4.5194  -4.4672  -4.1275  -3.9805  -3.7690
    -3.6466  -3.4716  -3.2839  -3.1889  -2.9326  -2.7950  -2.7169  -2.1203
    -1.5457  -1.0105   1.9734   2.1732   2.9336   3.0475   3.2300   3.3346

     occupation numbers 
     1.0000   1.0000   1.0000   1.0000   1.0000   1.0000   1.0000   1.0000
     1.0000   1.0000   1.0000   1.0000   1.0000   1.0000   1.0000   1.0000
     1.0000   1.0000   1.0000   1.0000   1.0000   1.0000   1.0000   1.0000
     1.0000   1.0000   1.0000   1.0000   1.0000   1.0000   1.0000   1.0000
     0.0000   0.0000   0.0000   0.0000   0.0000   0.0000   0.0000   0.0000

          k = 0.0000 0.3608 0.0000 ( 48214 PWs)   bands (ev):

  -105.8895-104.5563 -67.4788 -67.1046 -65.5955 -64.9118 -64.4893 -64.1697
   -15.1449 -14.9198 -14.5558 -14.3034  -6.8385  -6.6640  -6.4371  -6.1335
    -5.7243  -5.5988  -5.1216  -4.5808  -4.5086  -4.2784  -4.1385  -3.9820
    -3.7974  -3.6023  -3.4812  -3.2575  -2.9616  -2.8429  -2.7075  -2.1685
    -1.4310  -1.0259   1.5111   1.7235   3.0638   3.2058   3.4844   3.6140

     occupation numbers 
     1.0000   1.0000   1.0000   1.0000   1.0000   1.0000   1.0000   1.0000
     1.0000   1.0000   1.0000   1.0000   1.0000   1.0000   1.0000   1.0000
     1.0000   1.0000   1.0000   1.0000   1.0000   1.0000   1.0000   1.0000
     1.0000   1.0000   1.0000   1.0000   1.0000   1.0000   1.0000   1.0000
     0.0000   0.0000   0.0000   0.0000   0.0000   0.0000   0.0000   0.0000

          k = 0.0000 0.4330 0.0000 ( 48212 PWs)   bands (ev):

  -105.8895-104.5563 -67.4788 -67.1046 -65.5955 -64.9119 -64.4893 -64.1698
   -14.9407 -14.7109 -14.5034 -14.2494  -7.2221  -7.0330  -6.5688  -6.3079
    -5.7159  -5.5731  -5.0289  -4.7118  -4.5110  -4.4221  -4.1907  -4.0947
    -3.9743  -3.7374  -3.6756  -3.2727  -3.0437  -2.9398  -2.5945  -2.1923
    -1.2975  -1.0283   1.1584   1.3875   3.0587   3.2081   3.5048   3.6682

     occupation numbers 
     1.0000   1.0000   1.0000   1.0000   1.0000   1.0000   1.0000   1.0000
     1.0000   1.0000   1.0000   1.0000   1.0000   1.0000   1.0000   1.0000
     1.0000   1.0000   1.0000   1.0000   1.0000   1.0000   1.0000   1.0000
     1.0000   1.0000   1.0000   1.0000   1.0000   1.0000   1.0000   1.0000
     0.0000   0.0000   0.0000   0.0000   0.0000   0.0000   0.0000   0.0000

          k = 0.0000 0.5052 0.0000 ( 48214 PWs)   bands (ev):

  -105.8895-104.5563 -67.4788 -67.1046 -65.5956 -64.9119 -64.4893 -64.1698
   -14.7712 -14.5374 -14.4916 -14.2371  -7.5132  -7.3232  -6.6511  -6.4450
    -5.7118  -5.5327  -4.8509  -4.7635  -4.5484  -4.4617  -4.2320  -4.1445
    -4.0701  -3.9036  -3.7941  -3.2814  -3.1159  -3.0187  -2.5199  -2.2013
    -1.2087  -1.0239   0.9449   1.1912   2.9974   3.1401   3.5417   3.7184

     occupation numbers 
     1.0000   1.0000   1.0000   1.0000   1.0000   1.0000   1.0000   1.0000
     1.0000   1.0000   1.0000   1.0000   1.0000   1.0000   1.0000   1.0000
     1.0000   1.0000   1.0000   1.0000   1.0000   1.0000   1.0000   1.0000
     1.0000   1.0000   1.0000   1.0000   1.0000   1.0000   1.0000   1.0000
     0.0000   0.0000   0.0000   0.0000   0.0000   0.0000   0.0000   0.0000

          k = 0.0000-0.5774 0.0000 ( 48254 PWs)   bands (ev):

  -105.8895-104.5563 -67.4789 -67.1046 -65.5956 -64.9119 -64.4893 -64.1698
   -14.6940 -14.5031 -14.4590 -14.2479  -7.6183  -7.4281  -6.6811  -6.4973
    -5.7115  -5.5277  -4.7768  -4.6934  -4.6228  -4.4721  -4.2396  -4.1608
    -4.0702  -3.9935  -3.8506  -3.2844  -3.1453  -3.0501  -2.4960  -2.2031
    -1.1804  -1.0205   0.8748   1.1291   2.9627   3.1020   3.6888   3.8313

     occupation numbers 
     1.0000   1.0000   1.0000   1.0000   1.0000   1.0000   1.0000   1.0000
     1.0000   1.0000   1.0000   1.0000   1.0000   1.0000   1.0000   1.0000
     1.0000   1.0000   1.0000   1.0000   1.0000   1.0000   1.0000   1.0000
     1.0000   1.0000   1.0000   1.0000   1.0000   1.0000   1.0000   1.0000
     0.0000   0.0000   0.0000   0.0000   0.0000   0.0000   0.0000   0.0000

          k = 0.0625 0.1083 0.0000 ( 48119 PWs)   bands (ev):

  -105.8895-104.5563 -67.4787 -67.1046 -65.5953 -64.9117 -64.4893 -64.1695
   -15.7027 -15.4873 -14.8039 -14.5596  -6.8077  -6.6442  -5.8635  -5.7018
    -4.9458  -4.5154  -4.4347  -4.3183  -4.1070  -4.0013  -3.6917  -3.4705
    -3.3672  -3.2224  -3.0191  -2.8739  -2.7562  -2.4430  -2.3170  -1.9373
    -1.2401  -0.8976   2.1506   2.2733   2.7888   2.8667   3.1073   3.1682

     occupation numbers 
     1.0000   1.0000   1.0000   1.0000   1.0000   1.0000   1.0000   1.0000
     1.0000   1.0000   1.0000   1.0000   1.0000   1.0000   1.0000   1.0000
     1.0000   1.0000   1.0000   1.0000   1.0000   1.0000   1.0000   1.0000
     1.0000   1.0000   1.0000   1.0000   1.0000   1.0000   1.0000   1.0000
     0.0000   0.0000   0.0000   0.0000   0.0000   0.0000   0.0000   0.0000

          k = 0.0625 0.1804 0.0000 ( 48136 PWs)   bands (ev):

  -105.8895-104.5563 -67.4787 -67.1046 -65.5953 -64.9117 -64.4893 -64.1696
   -15.5876 -15.3705 -14.7441 -14.4979  -6.7080  -6.5624  -5.9774  -5.7077
    -5.2418  -4.7792  -4.5438  -4.4708  -4.3838  -4.0333  -3.7218  -3.5828
    -3.4155  -3.3006  -3.1926  -3.0652  -2.7899  -2.5781  -2.5159  -2.1136
    -1.4117  -1.0353   2.4774   2.6037   2.8719   2.9424   3.0031   3.1041

     occupation numbers 
     1.0000   1.0000   1.0000   1.0000   1.0000   1.0000   1.0000   1.0000
     1.0000   1.0000   1.0000   1.0000   1.0000   1.0000   1.0000   1.0000
     1.0000   1.0000   1.0000   1.0000   1.0000   1.0000   1.0000   1.0000
     1.0000   1.0000   1.0000   1.0000   1.0000   1.0000   1.0000   1.0000
     0.0000   0.0000   0.0000   0.0000   0.0000   0.0000   0.0000   0.0000

          k = 0.0625 0.2526 0.0000 ( 48148 PWs)   bands (ev):

  -105.8895-104.5563 -67.4787 -67.1046 -65.5954 -64.9118 -64.4893 -64.1696
   -15.4258 -15.2061 -14.6663 -14.4176  -6.6114  -6.4999  -6.1234  -5.7377
    -5.6112  -5.2366  -4.8525  -4.5704  -4.5449  -4.0598  -3.9171  -3.6636
    -3.5894  -3.4036  -3.2519  -3.1735  -2.8682  -2.7633  -2.6473  -2.1965
    -1.5151  -1.0970   2.3571   2.5634   2.8717   2.9698   3.1243   3.2240

     occupation numbers 
     1.0000   1.0000   1.0000   1.0000   1.0000   1.0000   1.0000   1.0000
     1.0000   1.0000   1.0000   1.0000   1.0000   1.0000   1.0000   1.0000
     1.0000   1.0000   1.0000   1.0000   1.0000   1.0000   1.0000   1.0000
     1.0000   1.0000   1.0000   1.0000   1.0000   1.0000   1.0000   1.0000
     0.0000   0.0000   0.0000   0.0000   0.0000   0.0000   0.0000   0.0000

          k = 0.0625 0.3248 0.0000 ( 48173 PWs)   bands (ev):

  -105.8895-104.5563 -67.4788 -67.1046 -65.5954 -64.9118 -64.4893 -64.1697
   -15.2317 -15.0083 -14.5851 -14.3337  -6.6768  -6.5453  -6.3270  -6.0264
    -5.7241  -5.5349  -5.1070  -4.6835  -4.5616  -4.1809  -4.0655  -3.9347
    -3.7134  -3.5508  -3.3629  -3.2429  -2.9297  -2.8294  -2.7058  -2.2434
    -1.4826  -1.1082   1.8751   2.0881   3.1034   3.2312   3.3927   3.5000

     occupation numbers 
     1.0000   1.0000   1.0000   1.0000   1.0000   1.0000   1.0000   1.0000
     1.0000   1.0000   1.0000   1.0000   1.0000   1.0000   1.0000   1.0000
     1.0000   1.0000   1.0000   1.0000   1.0000   1.0000   1.0000   1.0000
     1.0000   1.0000   1.0000   1.0000   1.0000   1.0000   1.0000   1.0000
     0.0000   0.0000   0.0000   0.0000   0.0000   0.0000   0.0000   0.0000

          k = 0.0625 0.3969 0.0000 ( 48195 PWs)   bands (ev):

  -105.8895-104.5563 -67.4788 -67.1046 -65.5955 -64.9118 -64.4893 -64.1698
   -15.0259 -14.7980 -14.5190 -14.2655  -7.0148  -6.8275  -6.5112  -6.2250
    -5.7296  -5.5854  -5.1050  -4.7719  -4.5710  -4.4363  -4.1637  -4.0583
    -3.8896  -3.7010  -3.5505  -3.2512  -3.0018  -2.8892  -2.6524  -2.2679
    -1.3806  -1.0970   1.4631   1.6874   3.1883   3.3370   3.6152   3.7584

     occupation numbers 
     1.0000   1.0000   1.0000   1.0000   1.0000   1.0000   1.0000   1.0000
     1.0000   1.0000   1.0000   1.0000   1.0000   1.0000   1.0000   1.0000
     1.0000   1.0000   1.0000   1.0000   1.0000   1.0000   1.0000   1.0000
     1.0000   1.0000   1.0000   1.0000   1.0000   1.0000   1.0000   1.0000
     0.0000   0.0000   0.0000   0.0000   0.0000   0.0000   0.0000   0.0000

          k = 0.0625 0.4691 0.0000 ( 48179 PWs)   bands (ev):

  -105.8895-104.5563 -67.4788 -67.1046 -65.5955 -64.9119 -64.4893 -64.1698
   -14.8366 -14.6042 -14.4868 -14.2324  -7.3634  -7.1737  -6.6088  -6.3758
    -5.7207  -5.5403  -4.9755  -4.8193  -4.6234  -4.5302  -4.3018  -4.0820
    -4.0289  -3.8616  -3.6898  -3.2440  -3.0850  -2.9681  -2.5687  -2.2832
    -1.2809  -1.0879   1.1748   1.4135   3.2062   3.3551   3.6041   3.7732

     occupation numbers 
     1.0000   1.0000   1.0000   1.0000   1.0000   1.0000   1.0000   1.0000
     1.0000   1.0000   1.0000   1.0000   1.0000   1.0000   1.0000   1.0000
     1.0000   1.0000   1.0000   1.0000   1.0000   1.0000   1.0000   1.0000
     1.0000   1.0000   1.0000   1.0000   1.0000   1.0000   1.0000   1.0000
     0.0000   0.0000   0.0000   0.0000   0.0000   0.0000   0.0000   0.0000

          k = 0.0625 0.5413 0.0000 ( 48239 PWs)   bands (ev):

  -105.8895-104.5563 -67.4789 -67.1046 -65.5956 -64.9119 -64.4893 -64.1698
   -14.7050 -14.4933 -14.4696 -14.2384  -7.5642  -7.3742  -6.6619  -6.4679
    -5.7152  -5.5231  -4.8977  -4.8038  -4.6423  -4.5168  -4.3585  -4.1825
    -4.0446  -3.9527  -3.7935  -3.2325  -3.1346  -3.0289  -2.5166  -2.2970
    -1.2147  -1.0956   1.0306   1.2814   3.1847   3.3281   3.6998   3.8830

     occupation numbers 
     1.0000   1.0000   1.0000   1.0000   1.0000   1.0000   1.0000   1.0000
     1.0000   1.0000   1.0000   1.0000   1.0000   1.0000   1.0000   1.0000
     1.0000   1.0000   1.0000   1.0000   1.0000   1.0000   1.0000   1.0000
     1.0000   1.0000   1.0000   1.0000   1.0000   1.0000   1.0000   1.0000
     0.0000   0.0000   0.0000   0.0000   0.0000   0.0000   0.0000   0.0000

          k = 0.1250 0.2165 0.0000 ( 48125 PWs)   bands (ev):

  -105.8895-104.5563 -67.4787 -67.1046 -65.5954 -64.9118 -64.4893 -64.1696
   -15.4517 -15.2324 -14.6779 -14.4295  -6.6172  -6.4996  -6.0878  -5.7472
    -5.5164  -5.0565  -4.8347  -4.6985  -4.5687  -4.0243  -3.9252  -3.6245
    -3.5529  -3.3671  -3.2387  -3.2180  -2.8358  -2.7081  -2.4795  -2.4064
    -1.3928  -1.2535   2.6753   2.8774   2.9070   3.0153   3.0566   3.1464

     occupation numbers 
     1.0000   1.0000   1.0000   1.0000   1.0000   1.0000   1.0000   1.0000
     1.0000   1.0000   1.0000   1.0000   1.0000   1.0000   1.0000   1.0000
     1.0000   1.0000   1.0000   1.0000   1.0000   1.0000   1.0000   1.0000
     1.0000   1.0000   1.0000   1.0000   1.0000   1.0000   1.0000   1.0000
     0.0000   0.0000   0.0000   0.0000   0.0000   0.0000   0.0000   0.0000

          k = 0.1250 0.2887 0.0000 ( 48141 PWs)   bands (ev):

  -105.8895-104.5563 -67.4788 -67.1046 -65.5954 -64.9118 -64.4893 -64.1697
   -15.2772 -15.0547 -14.6013 -14.3504  -6.5945  -6.4966  -6.2343  -5.9345
    -5.7061  -5.3744  -5.1183  -4.9221  -4.6362  -4.1617  -4.0149  -3.8688
    -3.6512  -3.5216  -3.2828  -3.2360  -2.8995  -2.8262  -2.6564  -2.4150
    -1.4557  -1.2785   2.3867   2.6160   3.1440   3.2453   3.2922   3.3694

     occupation numbers 
     1.0000   1.0000   1.0000   1.0000   1.0000   1.0000   1.0000   1.0000
     1.0000   1.0000   1.0000   1.0000   1.0000   1.0000   1.0000   1.0000
     1.0000   1.0000   1.0000   1.0000   1.0000   1.0000   1.0000   1.0000
     1.0000   1.0000   1.0000   1.0000   1.0000   1.0000   1.0000   1.0000
     0.0000   0.0000   0.0000   0.0000   0.0000   0.0000   0.0000   0.0000

          k = 0.1250 0.3608 0.0000 ( 48162 PWs)   bands (ev):

  -105.8895-104.5563 -67.4788 -67.1046 -65.5955 -64.9118 -64.4893 -64.1697
   -15.0813 -14.8547 -14.5301 -14.2770  -6.8039  -6.6305  -6.4474  -6.1622
    -5.7511  -5.5420  -5.1891  -5.0379  -4.6997  -4.3991  -4.1637  -3.9947
    -3.8046  -3.6917  -3.4205  -3.2327  -2.9705  -2.8736  -2.7375  -2.3921
    -1.4942  -1.2029   1.9847   2.2150   3.2740   3.4170   3.6692   3.7728

     occupation numbers 
     1.0000   1.0000   1.0000   1.0000   1.0000   1.0000   1.0000   1.0000
     1.0000   1.0000   1.0000   1.0000   1.0000   1.0000   1.0000   1.0000
     1.0000   1.0000   1.0000   1.0000   1.0000   1.0000   1.0000   1.0000
     1.0000   1.0000   1.0000   1.0000   1.0000   1.0000   1.0000   1.0000
     0.0000   0.0000   0.0000   0.0000   0.0000   0.0000   0.0000   0.0000

          k = 0.1250 0.4330 0.0000 ( 48177 PWs)   bands (ev):

  -105.8895-104.5563 -67.4788 -67.1046 -65.5955 -64.9119 -64.4893 -64.1698
   -14.8878 -14.6564 -14.4826 -14.2283  -7.1468  -6.9563  -6.5594  -6.3034
    -5.7518  -5.5412  -5.1791  -5.0520  -4.7270  -4.6057  -4.3886  -4.0209
    -3.9445  -3.8468  -3.5660  -3.2068  -3.0583  -2.9072  -2.7219  -2.3925
    -1.4537  -1.1575   1.6396   1.8756   3.4142   3.5642   3.9430   4.0786

     occupation numbers 
     1.0000   1.0000   1.0000   1.0000   1.0000   1.0000   1.0000   1.0000
     1.0000   1.0000   1.0000   1.0000   1.0000   1.0000   1.0000   1.0000
     1.0000   1.0000   1.0000   1.0000   1.0000   1.0000   1.0000   1.0000
     1.0000   1.0000   1.0000   1.0000   1.0000   1.0000   1.0000   1.0000
     0.0000   0.0000   0.0000   0.0000   0.0000   0.0000   0.0000   0.0000

          k = 0.1250 0.5052 0.0000 ( 48212 PWs)   bands (ev):

  -105.8895-104.5563 -67.4789 -67.1046 -65.5956 -64.9119 -64.4893 -64.1698
   -14.7278 -14.4923 -14.4726 -14.2184  -7.4119  -7.2227  -6.6174  -6.3988
    -5.7372  -5.5112  -5.2234  -5.0481  -4.7422  -4.6138  -4.5020  -4.1739
    -3.9724  -3.9207  -3.6818  -3.1798  -3.1188  -2.9662  -2.6560  -2.4263
    -1.3815  -1.1655   1.4192   1.6646   3.5796   3.7232   3.9855   4.1345

     occupation numbers 
     1.0000   1.0000   1.0000   1.0000   1.0000   1.0000   1.0000   1.0000
     1.0000   1.0000   1.0000   1.0000   1.0000   1.0000   1.0000   1.0000
     1.0000   1.0000   1.0000   1.0000   1.0000   1.0000   1.0000   1.0000
     1.0000   1.0000   1.0000   1.0000   1.0000   1.0000   1.0000   1.0000
     0.0000   0.0000   0.0000   0.0000   0.0000   0.0000   0.0000   0.0000

          k = 0.1250 0.5774 0.0000 ( 48240 PWs)   bands (ev):

  -105.8895-104.5563 -67.4789 -67.1046 -65.5956 -64.9119 -64.4893 -64.1699
   -14.6548 -14.4844 -14.4176 -14.2299  -7.5086  -7.3199  -6.6372  -6.4334
    -5.7198  -5.5158  -5.2459  -5.0736  -4.7117  -4.6392  -4.4348  -4.2918
    -4.0159  -3.8958  -3.7402  -3.1855  -3.1153  -3.0014  -2.6116  -2.4594
    -1.3348  -1.1911   1.3450   1.5956   3.6704   3.8044   4.0239   4.1026

     occupation numbers 
     1.0000   1.0000   1.0000   1.0000   1.0000   1.0000   1.0000   1.0000
     1.0000   1.0000   1.0000   1.0000   1.0000   1.0000   1.0000   1.0000
     1.0000   1.0000   1.0000   1.0000   1.0000   1.0000   1.0000   1.0000
     1.0000   1.0000   1.0000   1.0000   1.0000   1.0000   1.0000   1.0000
     0.0000   0.0000   0.0000   0.0000   0.0000   0.0000   0.0000   0.0000

          k = 0.1875 0.3248 0.0000 ( 48145 PWs)   bands (ev):

  -105.8895-104.5563 -67.4788 -67.1046 -65.5955 -64.9118 -64.4893 -64.1697
   -15.1006 -14.8743 -14.5341 -14.2812  -6.7053  -6.5595  -6.3995  -6.1407
    -5.7571  -5.4648  -5.2793  -5.1962  -4.7520  -4.4034  -4.1265  -3.9744
    -3.7620  -3.6974  -3.3422  -3.2290  -2.9628  -2.9160  -2.7826  -2.4254
    -1.5582  -1.2400   2.3274   2.5736   3.1781   3.3092   3.6706   3.7682

     occupation numbers 
     1.0000   1.0000   1.0000   1.0000   1.0000   1.0000   1.0000   1.0000
     1.0000   1.0000   1.0000   1.0000   1.0000   1.0000   1.0000   1.0000
     1.0000   1.0000   1.0000   1.0000   1.0000   1.0000   1.0000   1.0000
     1.0000   1.0000   1.0000   1.0000   1.0000   1.0000   1.0000   1.0000
     0.0000   0.0000   0.0000   0.0000   0.0000   0.0000   0.0000   0.0000

          k = 0.1875 0.3969 0.0000 ( 48173 PWs)   bands (ev):

  -105.8895-104.5563 -67.4788 -67.1046 -65.5955 -64.9119 -64.4893 -64.1698
   -14.9156 -14.6847 -14.4803 -14.2262  -6.9509  -6.7582  -6.5324  -6.2818
    -5.8009  -5.5181  -5.4001  -5.2547  -4.7948  -4.6290  -4.3894  -3.9908
    -3.8946  -3.8387  -3.4657  -3.1913  -3.0436  -2.9661  -2.8347  -2.4173
    -1.6050  -1.1835   2.0913   2.3359   3.2799   3.4198   4.1217   4.2266

     occupation numbers 
     1.0000   1.0000   1.0000   1.0000   1.0000   1.0000   1.0000   1.0000
     1.0000   1.0000   1.0000   1.0000   1.0000   1.0000   1.0000   1.0000
     1.0000   1.0000   1.0000   1.0000   1.0000   1.0000   1.0000   1.0000
     1.0000   1.0000   1.0000   1.0000   1.0000   1.0000   1.0000   1.0000
     0.0001   0.0000   0.0000   0.0000   0.0000   0.0000   0.0000   0.0000

          k = 0.1875 0.4691 0.0000 ( 48158 PWs)   bands (ev):

  -105.8895-104.5563 -67.4789 -67.1046 -65.5956 -64.9119 -64.4893 -64.1698
   -14.7475 -14.5118 -14.4556 -14.2014  -7.2066  -7.0168  -6.5821  -6.3507
    -5.8315  -5.5201  -5.4993  -5.3089  -4.8297  -4.7043  -4.5830  -4.1275
    -3.9515  -3.8720  -3.5868  -3.1547  -3.1132  -2.9454  -2.8570  -2.4586
    -1.5662  -1.1900   1.8417   2.0861   3.5133   3.6578   4.3901   4.5316

     occupation numbers 
     1.0000   1.0000   1.0000   1.0000   1.0000   1.0000   1.0000   1.0000
     1.0000   1.0000   1.0000   1.0000   1.0000   1.0000   1.0000   1.0000
     1.0000   1.0000   1.0000   1.0000   1.0000   1.0000   1.0000   1.0000
     1.0000   1.0000   1.0000   1.0000   1.0000   1.0000   1.0000   1.0000
     0.0000   0.0000   0.0000   0.0000   0.0000   0.0000   0.0000   0.0000

          k = 0.1875 0.5413 0.0000 ( 48174 PWs)   bands (ev):

  -105.8895-104.5563 -67.4789 -67.1046 -65.5956 -64.9119 -64.4893 -64.1699
   -14.6303 -14.4644 -14.3909 -14.2109  -7.3608  -7.1752  -6.6005  -6.3728
    -5.7999  -5.6263  -5.4863  -5.4007  -4.8802  -4.7768  -4.4934  -4.2709
    -3.9952  -3.8315  -3.6740  -3.1897  -3.0877  -2.9595  -2.8141  -2.5260
    -1.4989  -1.2395   1.6986   1.9465   3.8494   3.9921   4.2728   4.4215

     occupation numbers 
     1.0000   1.0000   1.0000   1.0000   1.0000   1.0000   1.0000   1.0000
     1.0000   1.0000   1.0000   1.0000   1.0000   1.0000   1.0000   1.0000
     1.0000   1.0000   1.0000   1.0000   1.0000   1.0000   1.0000   1.0000
     1.0000   1.0000   1.0000   1.0000   1.0000   1.0000   1.0000   1.0000
     0.0000   0.0000   0.0000   0.0000   0.0000   0.0000   0.0000   0.0000

          k = 0.2500 0.4330 0.0000 ( 48187 PWs)   bands (ev):

  -105.8895-104.5563 -67.4789 -67.1046 -65.5956 -64.9119 -64.4893 -64.1698
   -14.7549 -14.5192 -14.4492 -14.1950  -7.0876  -6.8953  -6.5791  -6.3573
    -5.9348  -5.5725  -5.5611  -5.3722  -4.8732  -4.7368  -4.6061  -4.1092
    -3.9503  -3.8501  -3.5410  -3.1462  -3.1128  -3.0274  -2.8667  -2.4645
    -1.6394  -1.1979   2.0419   2.2895   3.3678   3.5080   4.6322   4.7417

     occupation numbers 
     1.0000   1.0000   1.0000   1.0000   1.0000   1.0000   1.0000   1.0000
     1.0000   1.0000   1.0000   1.0000   1.0000   1.0000   1.0000   1.0000
     1.0000   1.0000   1.0000   1.0000   1.0000   1.0000   1.0000   1.0000
     1.0000   1.0000   1.0000   1.0000   1.0000   1.0000   1.0000   1.0000
     0.1406   0.0000   0.0000   0.0000   0.0000   0.0000   0.0000   0.0000

          k = 0.2500 0.5052 0.0000 ( 48229 PWs)   bands (ev):

  -105.8895-104.5563 -67.4789 -67.1046 -65.5956 -64.9119 -64.4893 -64.1699
   -14.6230 -14.4478 -14.3824 -14.1949  -7.1907  -7.0097  -6.5972  -6.3631
    -6.0555  -5.7530  -5.5833  -5.3951  -5.0506  -4.8832  -4.5351  -4.2304
    -3.9854  -3.7960  -3.6210  -3.1977  -3.0803  -2.9838  -2.8885  -2.5624
    -1.5915  -1.2695   1.9184   2.1626   3.6566   3.8069   4.5551   4.7089

     occupation numbers 
     1.0000   1.0000   1.0000   1.0000   1.0000   1.0000   1.0000   1.0000
     1.0000   1.0000   1.0000   1.0000   1.0000   1.0000   1.0000   1.0000
     1.0000   1.0000   1.0000   1.0000   1.0000   1.0000   1.0000   1.0000
     1.0000   1.0000   1.0000   1.0000   1.0000   1.0000   1.0000   1.0000
     0.0000   0.0000   0.0000   0.0000   0.0000   0.0000   0.0000   0.0000

          k = 0.2500 0.5774 0.0000 ( 48231 PWs)   bands (ev):

  -105.8895-104.5563 -67.4789 -67.1046 -65.5956 -64.9119 -64.4893 -64.1699
   -14.5591 -14.4637 -14.3161 -14.2120  -7.2303  -7.0553  -6.6014  -6.3489
    -6.0869  -5.8451  -5.5452  -5.4554  -5.1016  -4.9647  -4.4505  -4.3021
    -3.9935  -3.7590  -3.6646  -3.2242  -3.0591  -2.9529  -2.8776  -2.6335
    -1.5407  -1.3283   1.8624   2.1056   4.0027   4.1658   4.1730   4.3239

     occupation numbers 
     1.0000   1.0000   1.0000   1.0000   1.0000   1.0000   1.0000   1.0000
     1.0000   1.0000   1.0000   1.0000   1.0000   1.0000   1.0000   1.0000
     1.0000   1.0000   1.0000   1.0000   1.0000   1.0000   1.0000   1.0000
     1.0000   1.0000   1.0000   1.0000   1.0000   1.0000   1.0000   1.0000
     0.0000   0.0000   0.0000   0.0000   0.0000   0.0000   0.0000   0.0000

          k = 0.3125 0.5413 0.0000 ( 48231 PWs)   bands (ev):

  -105.8895-104.5563 -67.4789 -67.1046 -65.5956 -64.9119 -64.4893 -64.1699
   -14.5305 -14.4669 -14.2852 -14.2168  -7.1329  -6.9708  -6.6430  -6.3700
    -6.2282  -5.9346  -5.5158  -5.4005  -5.2722  -5.0466  -4.4497  -4.2927
    -3.9908  -3.7384  -3.6545  -3.2390  -3.0528  -2.9269  -2.8914  -2.6965
    -1.5334  -1.3805   1.9062   2.1456   3.9580   4.1222   4.3197   4.4871

     occupation numbers 
     1.0000   1.0000   1.0000   1.0000   1.0000   1.0000   1.0000   1.0000
     1.0000   1.0000   1.0000   1.0000   1.0000   1.0000   1.0000   1.0000
     1.0000   1.0000   1.0000   1.0000   1.0000   1.0000   1.0000   1.0000
     1.0000   1.0000   1.0000   1.0000   1.0000   1.0000   1.0000   1.0000
     0.0000   0.0000   0.0000   0.0000   0.0000   0.0000   0.0000   0.0000

     the Fermi energy is    -1.6492 ev
     (compare with:    -1.6372 eV, computed in scf)

     Writing output data file ./tmp/nso.save/
 
     init_run     :      0.97s CPU      1.13s WALL (       1 calls)
     electrons    :     38.97s CPU     39.41s WALL (       1 calls)

     Called by init_run:
     wfcinit      :      0.00s CPU      0.11s WALL (       1 calls)
     wfcinit:atom :      0.02s CPU      0.02s WALL (      30 calls)
     wfcinit:wfcr :      1.82s CPU      1.85s WALL (      30 calls)
     potinit      :      0.08s CPU      0.13s WALL (       1 calls)
     hinit0       :      0.77s CPU      0.79s WALL (       1 calls)

     Called by electrons:
     c_bands      :     38.96s CPU     39.40s WALL (       1 calls)
     v_of_rho     :      0.05s CPU      0.06s WALL (       1 calls)
     v_h          :      0.00s CPU      0.00s WALL (       1 calls)
     v_xc         :      0.05s CPU      0.06s WALL (       1 calls)

     Called by c_bands:
     init_us_2    :      0.02s CPU      0.02s WALL (      30 calls)
     cegterg      :     35.59s CPU     35.97s WALL (      69 calls)

     Called by sum_band:

     Called by *egterg:
     cdiaghg      :      2.85s CPU      2.88s WALL (    1161 calls)
     cegterg:over :      1.44s CPU      1.45s WALL (    1131 calls)
     cegterg:upda :      0.85s CPU      0.87s WALL (    1131 calls)
     cegterg:last :      0.95s CPU      0.96s WALL (     523 calls)
     h_psi        :     30.57s CPU     30.93s WALL (    1230 calls)
     g_psi        :      0.10s CPU      0.10s WALL (    1131 calls)

     Called by h_psi:
     h_psi:calbec :      1.06s CPU      1.08s WALL (    1230 calls)
     vloc_psi     :     28.38s CPU     28.69s WALL (    1230 calls)
     add_vuspsi   :      1.00s CPU      1.02s WALL (    1230 calls)

     General routines
     calbec       :      1.05s CPU      1.07s WALL (    1230 calls)
     fft          :      0.08s CPU      0.08s WALL (      27 calls)
     ffts         :      0.00s CPU      0.00s WALL (       4 calls)
     fftw         :     26.28s CPU     26.57s WALL (   83912 calls)
     interpolate  :      0.01s CPU      0.01s WALL (       4 calls)
     davcio       :      0.04s CPU      0.15s WALL (      60 calls)
 
     Parallel routines
 
     PWSCF        :     44.89s CPU     53.55s WALL

 
   This run was terminated on:  17: 6:46   8Mar2023            

=------------------------------------------------------------------------------=
   JOB DONE.
=------------------------------------------------------------------------------=
