
     Program PWSCF v.6.8 starts on  8Mar2023 at 17: 5:21 

     This program is part of the open-source Quantum ESPRESSO suite
     for quantum simulation of materials; please cite
         "P. Giannozzi et al., J. Phys.:Condens. Matter 21 395502 (2009);
         "P. Giannozzi et al., J. Phys.:Condens. Matter 29 465901 (2017);
         "P. Giannozzi et al., J. Chem. Phys. 152 154105 (2020);
          URL http://www.quantum-espresso.org", 
     in publications or presentations arising from this work. More details at
     http://www.quantum-espresso.org/quote

     Parallel version (MPI & OpenMP), running on      80 processor cores
     Number of MPI processes:                80
     Threads/MPI process:                     1

     MPI processes distributed on     2 nodes
     R & G space division:  proc/nbgrp/npool/nimage =      80
     86138 MiB available memory on the printing compute node when the environment starts
 
     Reading input from scf.in

     Current dimensions of program PWSCF are:
     Max number of different atomic species (ntypx) = 10
     Max number of k-points (npk) =  40000
     Max angular momentum in pseudopotentials (lmaxx) =  4

     Fixed quantization axis for GGA:     0.000000    0.000000    1.000000
     Message from routine setup:
     using ibrav=0 with symmetry is DISCOURAGED, use correct ibrav instead

     Subspace diagonalization in iterative solution of the eigenvalue problem:
     a serial algorithm will be used

 
     Parallelization info
     --------------------
     sticks:   dense  smooth     PW     G-vecs:    dense   smooth      PW
     Min          23      22      6                 5111     4806     684
     Max          24      23      7                 5135     4845     709
     Sum        1879    1789    499               409943   385631   55807
 
     Using Slab Decomposition
 


     bravais-lattice index     =            0
     lattice parameter (alat)  =       7.3605  a.u.
     unit-cell volume          =    2170.2486 (a.u.)^3
     number of atoms/cell      =            3
     number of atomic types    =            2
     number of electrons       =        32.00
     number of Kohn-Sham states=           40
     kinetic-energy cutoff     =     120.0000  Ry
     charge density cutoff     =     500.0000  Ry
     scf convergence threshold =      1.0E-06
     mixing beta               =       0.4000
     number of iterations used =            8  plain     mixing
     Exchange-correlation= PBE
                           (   1   4   3   4   0   0   0)
     Noncollinear calculation with spin-orbit


     celldm(1)=   7.360481  celldm(2)=   0.000000  celldm(3)=   0.000000
     celldm(4)=   0.000000  celldm(5)=   0.000000  celldm(6)=   0.000000

     crystal axes: (cart. coord. in units of alat)
               a(1) = (   1.000000   0.000000   0.000000 )  
               a(2) = (  -0.500000   0.866025   0.000000 )  
               a(3) = (   0.000000   0.000000   6.284350 )  

     reciprocal axes: (cart. coord. in units 2 pi/alat)
               b(1) = (  1.000000  0.577350  0.000000 )  
               b(2) = (  0.000000  1.154701  0.000000 )  
               b(3) = (  0.000000  0.000000  0.159125 )  


     PseudoPot. # 1 for Ni read from file:
     pseudo/Ni.upf
     MD5 check sum: 14a7e289c5fff9cacaba393040e62f02
     Pseudo is Norm-conserving + core correction, Zval = 18.0
     Generated using ONCVPSP code by D. R. Hamann
     Using radial grid of 1372 points, 10 beta functions with: 
                l(1) =   0
                l(2) =   0
                l(3) =   1
                l(4) =   1
                l(5) =   1
                l(6) =   1
                l(7) =   2
                l(8) =   2
                l(9) =   2
               l(10) =   2

     PseudoPot. # 2 for I  read from file:
     pseudo/I.upf
     MD5 check sum: 301f7009ca0a2b18b0adf53dca02d42f
     Pseudo is Norm-conserving + core correction, Zval =  7.0
     Generated using ONCVPSP code by D. R. Hamann
     Using radial grid of 1210 points, 10 beta functions with: 
                l(1) =   0
                l(2) =   0
                l(3) =   1
                l(4) =   1
                l(5) =   1
                l(6) =   1
                l(7) =   2
                l(8) =   2
                l(9) =   2
               l(10) =   2

     atomic species   valence    mass     pseudopotential
        Ni            18.00    58.69340     Ni( 1.00)
        I              7.00   126.90447     I ( 1.00)

     12 Sym. Ops., with inversion, found


                                    s                        frac. trans.

      isym =  1     identity                                     

 Time Reversal            0
 cryst.   s( 1) = (     1          0          0      )
                  (     0          1          0      )
                  (     0          0          1      )

 cart.    s( 1) = (  1.0000000  0.0000000  0.0000000 )
                  (  0.0000000  1.0000000  0.0000000 )
                  (  0.0000000  0.0000000  1.0000000 )


      isym =  2     180 deg rotation - cart. axis [1,0,0]        

 Time Reversal            1
 cryst.   s( 2) = (     1          0          0      )
                  (    -1         -1          0      )
                  (     0          0         -1      )

 cart.    s( 2) = (  1.0000000  0.0000000  0.0000000 )
                  (  0.0000000 -1.0000000  0.0000000 )
                  (  0.0000000  0.0000000 -1.0000000 )


      isym =  3     120 deg rotation - cryst. axis [0,0,1]       

 Time Reversal            0
 cryst.   s( 3) = (     0          1          0      )
                  (    -1         -1          0      )
                  (     0          0          1      )

 cart.    s( 3) = ( -0.5000000 -0.8660254  0.0000000 )
                  (  0.8660254 -0.5000000  0.0000000 )
                  (  0.0000000  0.0000000  1.0000000 )


      isym =  4     120 deg rotation - cryst. axis [0,0,-1]      

 Time Reversal            0
 cryst.   s( 4) = (    -1         -1          0      )
                  (     1          0          0      )
                  (     0          0          1      )

 cart.    s( 4) = ( -0.5000000  0.8660254  0.0000000 )
                  ( -0.8660254 -0.5000000  0.0000000 )
                  (  0.0000000  0.0000000  1.0000000 )


      isym =  5     180 deg rotation - cryst. axis [0,1,0]       

 Time Reversal            1
 cryst.   s( 5) = (    -1         -1          0      )
                  (     0          1          0      )
                  (     0          0         -1      )

 cart.    s( 5) = ( -0.5000000 -0.8660254  0.0000000 )
                  ( -0.8660254  0.5000000  0.0000000 )
                  (  0.0000000  0.0000000 -1.0000000 )


      isym =  6     180 deg rotation - cryst. axis [1,1,0]       

 Time Reversal            1
 cryst.   s( 6) = (     0          1          0      )
                  (     1          0          0      )
                  (     0          0         -1      )

 cart.    s( 6) = ( -0.5000000  0.8660254  0.0000000 )
                  (  0.8660254  0.5000000  0.0000000 )
                  (  0.0000000  0.0000000 -1.0000000 )


      isym =  7     inversion                                    

 Time Reversal            0
 cryst.   s( 7) = (    -1          0          0      )
                  (     0         -1          0      )
                  (     0          0         -1      )

 cart.    s( 7) = ( -1.0000000  0.0000000  0.0000000 )
                  (  0.0000000 -1.0000000  0.0000000 )
                  (  0.0000000  0.0000000 -1.0000000 )


      isym =  8     inv. 180 deg rotation - cart. axis [1,0,0]   

 Time Reversal            1
 cryst.   s( 8) = (    -1          0          0      )
                  (     1          1          0      )
                  (     0          0          1      )

 cart.    s( 8) = ( -1.0000000  0.0000000  0.0000000 )
                  (  0.0000000  1.0000000  0.0000000 )
                  (  0.0000000  0.0000000  1.0000000 )


      isym =  9     inv. 120 deg rotation - cryst. axis [0,0,1]  

 Time Reversal            0
 cryst.   s( 9) = (     0         -1          0      )
                  (     1          1          0      )
                  (     0          0         -1      )

 cart.    s( 9) = (  0.5000000  0.8660254  0.0000000 )
                  ( -0.8660254  0.5000000  0.0000000 )
                  (  0.0000000  0.0000000 -1.0000000 )


      isym = 10     inv. 120 deg rotation - cryst. axis [0,0,-1] 

 Time Reversal            0
 cryst.   s(10) = (     1          1          0      )
                  (    -1          0          0      )
                  (     0          0         -1      )

 cart.    s(10) = (  0.5000000 -0.8660254  0.0000000 )
                  (  0.8660254  0.5000000  0.0000000 )
                  (  0.0000000  0.0000000 -1.0000000 )


      isym = 11     inv. 180 deg rotation - cryst. axis [0,1,0]  

 Time Reversal            1
 cryst.   s(11) = (     1          1          0      )
                  (     0         -1          0      )
                  (     0          0          1      )

 cart.    s(11) = (  0.5000000  0.8660254  0.0000000 )
                  (  0.8660254 -0.5000000  0.0000000 )
                  (  0.0000000  0.0000000  1.0000000 )


      isym = 12     inv. 180 deg rotation - cryst. axis [1,1,0]  

 Time Reversal            1
 cryst.   s(12) = (     0         -1          0      )
                  (    -1          0          0      )
                  (     0          0          1      )

 cart.    s(12) = (  0.5000000 -0.8660254  0.0000000 )
                  ( -0.8660254 -0.5000000  0.0000000 )
                  (  0.0000000  0.0000000  1.0000000 )


   Cartesian axes

     site n.     atom                  positions (alat units)
         1           Ni  tau(   1) = (   0.0000000   0.0000000   3.1421749  )
         2           I   tau(   2) = (  -0.0000000   0.5773503   3.5289144  )
         3           I   tau(   3) = (   0.5000000   0.2886751   2.7554354  )

   Crystallographic axes

     site n.     atom                  positions (cryst. coord.)
         1           Ni  tau(   1) = (  0.0000000  0.0000000  0.5000000  )
         2           I   tau(   2) = (  0.3333333  0.6666667  0.5615401  )
         3           I   tau(   3) = (  0.6666667  0.3333333  0.4384599  )

     number of k points=    10  Marzari-Vanderbilt smearing, width (Ry)=  0.0015
                       cart. coord. in units 2pi/alat
        k(    1) = (   0.0000000   0.0000000   0.0000000), wk =   0.0156250
        k(    2) = (   0.0000000   0.1443376   0.0000000), wk =   0.0937500
        k(    3) = (   0.0000000   0.2886751   0.0000000), wk =   0.0937500
        k(    4) = (   0.0000000   0.4330127   0.0000000), wk =   0.0937500
        k(    5) = (   0.0000000  -0.5773503   0.0000000), wk =   0.0468750
        k(    6) = (   0.1250000   0.2165064   0.0000000), wk =   0.0937500
        k(    7) = (   0.1250000   0.3608439   0.0000000), wk =   0.1875000
        k(    8) = (   0.1250000   0.5051815   0.0000000), wk =   0.1875000
        k(    9) = (   0.2500000   0.4330127   0.0000000), wk =   0.0937500
        k(   10) = (   0.2500000   0.5773503   0.0000000), wk =   0.0937500

                       cryst. coord.
        k(    1) = (   0.0000000   0.0000000   0.0000000), wk =   0.0156250
        k(    2) = (   0.0000000   0.1250000   0.0000000), wk =   0.0937500
        k(    3) = (   0.0000000   0.2500000   0.0000000), wk =   0.0937500
        k(    4) = (   0.0000000   0.3750000   0.0000000), wk =   0.0937500
        k(    5) = (   0.0000000  -0.5000000   0.0000000), wk =   0.0468750
        k(    6) = (   0.1250000   0.1250000   0.0000000), wk =   0.0937500
        k(    7) = (   0.1250000   0.2500000   0.0000000), wk =   0.1875000
        k(    8) = (   0.1250000   0.3750000   0.0000000), wk =   0.1875000
        k(    9) = (   0.2500000   0.2500000   0.0000000), wk =   0.0937500
        k(   10) = (   0.2500000   0.3750000   0.0000000), wk =   0.0937500

     Dense  grid:   409943 G-vectors     FFT dimensions: (  54,  54, 360)

     Smooth grid:   385631 G-vectors     FFT dimensions: (  54,  54, 324)

     Dynamical RAM for                 wfc:       0.73 MB

     Dynamical RAM for     wfc (w. buffer):       8.08 MB

     Dynamical RAM for           str. fact:       0.16 MB

     Dynamical RAM for           local pot:       0.00 MB

     Dynamical RAM for          nlocal pot:       0.94 MB

     Dynamical RAM for                qrad:       9.40 MB

     Dynamical RAM for          rho,v,vnew:       2.27 MB

     Dynamical RAM for               rhoin:       0.76 MB

     Dynamical RAM for            rho*nmix:       4.99 MB

     Dynamical RAM for           G-vectors:       0.33 MB

     Dynamical RAM for          h,s,v(r/c):       0.29 MB

     Dynamical RAM for          <psi|beta>:       0.12 MB

     Dynamical RAM for                 psi:       1.47 MB

     Dynamical RAM for                hpsi:       1.47 MB

     Dynamical RAM for      wfcinit/wfcrot:       1.14 MB

     Estimated static dynamical RAM per process >      23.06 MB

     Estimated max dynamical RAM per process >      31.41 MB

     Estimated total dynamical RAM >       2.45 GB
     Generating pointlists ...
     new r_m :   0.2867 (alat units)  2.1099 (a.u.) for type    1
     new r_m :   0.2867 (alat units)  2.1099 (a.u.) for type    2

     Initial potential from superposition of free atoms

     starting charge   31.99961, renormalised to   32.00000

     negative rho (up, down):  3.817E-06 5.460E-03

 ==============================================================================
     atom number    1 relative position :    0.0000   0.0000   3.1422
     charge :    16.779238  (integrated on a sphere of radius 0.287)
     magnetization :          0.000000    0.000000    4.599688
     magnetization/charge:    0.000000    0.000000    0.274130
     polar coord.: r, theta, phi [deg] :     4.599688    0.000000  360.000000

 ==============================================================================

 ==============================================================================
     atom number    2 relative position :   -0.0000   0.5774   3.5289
     charge :     4.047635  (integrated on a sphere of radius 0.287)
     magnetization :          0.000000    0.000000    0.423450
     magnetization/charge:    0.000000    0.000000    0.104617
     polar coord.: r, theta, phi [deg] :     0.423450    0.000000  360.000000

 ==============================================================================

 ==============================================================================
     atom number    3 relative position :    0.5000   0.2887   2.7554
     charge :     4.047635  (integrated on a sphere of radius 0.287)
     magnetization :          0.000000    0.000000    0.423450
     magnetization/charge:    0.000000    0.000000    0.104617
     polar coord.: r, theta, phi [deg] :     0.423450    0.000000  360.000000

 ==============================================================================
     Starting wfcs are   36 randomized atomic wfcs +    4 random wfcs

     total cpu time spent up to now is        2.4 secs

     Self-consistent Calculation

     iteration #  1     ecut=   120.00 Ry     beta= 0.40
     Davidson diagonalization with overlap

---- Real-time Memory Report at c_bands before calling an iterative solver
           165 MiB given to the printing process from OS
             0 MiB allocation reported by mallinfo(arena+hblkhd)
         83981 MiB available memory on the node where the printing process lives
------------------
     ethr =  1.00E-02,  avg # of iterations =  5.8
     Minimization algorithm failed to find Fermi energy: reverting to bisection
     Possible cause: smearing is larger than the electronic band-gap.

     negative rho (up, down):  7.735E-07 4.475E-02

     total cpu time spent up to now is        5.1 secs

     total energy              =    -387.11706357 Ry
     estimated scf accuracy    <       0.84135278 Ry

     total magnetization       =    -0.00    -0.00     1.93 Bohr mag/cell
     absolute magnetization    =     2.02 Bohr mag/cell

     iteration #  2     ecut=   120.00 Ry     beta= 0.40
     Davidson diagonalization with overlap

---- Real-time Memory Report at c_bands before calling an iterative solver
           183 MiB given to the printing process from OS
             0 MiB allocation reported by mallinfo(arena+hblkhd)
         83488 MiB available memory on the node where the printing process lives
------------------
     ethr =  2.63E-03,  avg # of iterations =  2.1

     negative rho (up, down):  4.961E-07 4.723E-02

     total cpu time spent up to now is        7.2 secs

     total energy              =    -387.15594128 Ry
     estimated scf accuracy    <       0.91867447 Ry

     total magnetization       =    -0.00     0.00     2.00 Bohr mag/cell
     absolute magnetization    =     2.20 Bohr mag/cell

     iteration #  3     ecut=   120.00 Ry     beta= 0.40
     Davidson diagonalization with overlap

---- Real-time Memory Report at c_bands before calling an iterative solver
           195 MiB given to the printing process from OS
             0 MiB allocation reported by mallinfo(arena+hblkhd)
         83271 MiB available memory on the node where the printing process lives
------------------
     ethr =  2.63E-03,  avg # of iterations =  2.0

     negative rho (up, down):  1.069E-06 5.247E-02

     total cpu time spent up to now is        9.1 secs

     total energy              =    -387.34035416 Ry
     estimated scf accuracy    <       0.17162909 Ry

     total magnetization       =    -0.00    -0.00     1.95 Bohr mag/cell
     absolute magnetization    =     2.06 Bohr mag/cell

     iteration #  4     ecut=   120.00 Ry     beta= 0.40
     Davidson diagonalization with overlap

---- Real-time Memory Report at c_bands before calling an iterative solver
           198 MiB given to the printing process from OS
             0 MiB allocation reported by mallinfo(arena+hblkhd)
         83235 MiB available memory on the node where the printing process lives
------------------
     ethr =  5.36E-04,  avg # of iterations =  2.7

     negative rho (up, down):  5.487E-07 4.886E-02

     total cpu time spent up to now is       11.1 secs

     total energy              =    -387.34623208 Ry
     estimated scf accuracy    <       0.01078743 Ry

     total magnetization       =    -0.00    -0.00     1.90 Bohr mag/cell
     absolute magnetization    =     2.01 Bohr mag/cell

     iteration #  5     ecut=   120.00 Ry     beta= 0.40
     Davidson diagonalization with overlap

---- Real-time Memory Report at c_bands before calling an iterative solver
           200 MiB given to the printing process from OS
             0 MiB allocation reported by mallinfo(arena+hblkhd)
         83208 MiB available memory on the node where the printing process lives
------------------
     ethr =  3.37E-05,  avg # of iterations =  9.9

     negative rho (up, down):  3.709E-07 3.323E-02

     total cpu time spent up to now is       13.7 secs

     total energy              =    -387.34756372 Ry
     estimated scf accuracy    <       0.00089478 Ry

     total magnetization       =    -0.00     0.00     1.92 Bohr mag/cell
     absolute magnetization    =     2.01 Bohr mag/cell

     iteration #  6     ecut=   120.00 Ry     beta= 0.40
     Davidson diagonalization with overlap

---- Real-time Memory Report at c_bands before calling an iterative solver
           202 MiB given to the printing process from OS
             0 MiB allocation reported by mallinfo(arena+hblkhd)
         83181 MiB available memory on the node where the printing process lives
------------------
     c_bands:  1 eigenvalues not converged
     ethr =  2.80E-06,  avg # of iterations =  7.2

     negative rho (up, down):  2.088E-07 2.511E-02

     total cpu time spent up to now is       16.4 secs

     total energy              =    -387.34767132 Ry
     estimated scf accuracy    <       0.00027741 Ry

     total magnetization       =    -0.00     0.00     1.92 Bohr mag/cell
     absolute magnetization    =     2.01 Bohr mag/cell

     iteration #  7     ecut=   120.00 Ry     beta= 0.40
     Davidson diagonalization with overlap

---- Real-time Memory Report at c_bands before calling an iterative solver
           205 MiB given to the printing process from OS
             0 MiB allocation reported by mallinfo(arena+hblkhd)
         83159 MiB available memory on the node where the printing process lives
------------------
     ethr =  8.67E-07,  avg # of iterations =  2.0

     negative rho (up, down):  1.617E-07 1.023E-03

     total cpu time spent up to now is       18.5 secs

     total energy              =    -387.34774779 Ry
     estimated scf accuracy    <       0.00035939 Ry

     total magnetization       =    -0.00     0.00     1.94 Bohr mag/cell
     absolute magnetization    =     2.02 Bohr mag/cell

     iteration #  8     ecut=   120.00 Ry     beta= 0.40
     Davidson diagonalization with overlap

---- Real-time Memory Report at c_bands before calling an iterative solver
           208 MiB given to the printing process from OS
             0 MiB allocation reported by mallinfo(arena+hblkhd)
         83140 MiB available memory on the node where the printing process lives
------------------
     ethr =  8.67E-07,  avg # of iterations =  1.9
     Minimization algorithm failed to find Fermi energy: reverting to bisection
     Possible cause: smearing is larger than the electronic band-gap.

     negative rho (up, down):  1.192E-07 9.918E-03

     total cpu time spent up to now is       20.3 secs

     total energy              =    -387.34777709 Ry
     estimated scf accuracy    <       0.00000980 Ry

     total magnetization       =    -0.00    -0.00     1.93 Bohr mag/cell
     absolute magnetization    =     2.01 Bohr mag/cell

     iteration #  9     ecut=   120.00 Ry     beta= 0.40
     Davidson diagonalization with overlap

---- Real-time Memory Report at c_bands before calling an iterative solver
           210 MiB given to the printing process from OS
             0 MiB allocation reported by mallinfo(arena+hblkhd)
         83121 MiB available memory on the node where the printing process lives
------------------
     ethr =  3.06E-08,  avg # of iterations =  3.4
     Minimization algorithm failed to find Fermi energy: reverting to bisection
     Possible cause: smearing is larger than the electronic band-gap.

     negative rho (up, down):  4.557E-08 7.811E-05

     total cpu time spent up to now is       22.7 secs

     total energy              =    -387.34778148 Ry
     estimated scf accuracy    <       0.00001374 Ry

     total magnetization       =     0.00    -0.00     1.92 Bohr mag/cell
     absolute magnetization    =     2.01 Bohr mag/cell

     iteration # 10     ecut=   120.00 Ry     beta= 0.40
     Davidson diagonalization with overlap

---- Real-time Memory Report at c_bands before calling an iterative solver
           214 MiB given to the printing process from OS
             0 MiB allocation reported by mallinfo(arena+hblkhd)
         83100 MiB available memory on the node where the printing process lives
------------------
     ethr =  3.06E-08,  avg # of iterations =  2.1
     Minimization algorithm failed to find Fermi energy: reverting to bisection
     Possible cause: smearing is larger than the electronic band-gap.

     negative rho (up, down):  2.092E-08 7.621E-05

     total cpu time spent up to now is       24.9 secs

     total energy              =    -387.34778956 Ry
     estimated scf accuracy    <       0.00000262 Ry

     total magnetization       =    -0.00    -0.00     1.93 Bohr mag/cell
     absolute magnetization    =     2.01 Bohr mag/cell

     iteration # 11     ecut=   120.00 Ry     beta= 0.40
     Davidson diagonalization with overlap

---- Real-time Memory Report at c_bands before calling an iterative solver
           216 MiB given to the printing process from OS
             0 MiB allocation reported by mallinfo(arena+hblkhd)
         83097 MiB available memory on the node where the printing process lives
------------------
     ethr =  8.20E-09,  avg # of iterations =  2.8
     Minimization algorithm failed to find Fermi energy: reverting to bisection
     Possible cause: smearing is larger than the electronic band-gap.

 ==============================================================================
     atom number    1 relative position :    0.0000   0.0000   3.1422
     charge :    16.891360  (integrated on a sphere of radius 0.287)
     magnetization :          0.000000    0.000000    1.229616
     magnetization/charge:    0.000000    0.000000    0.072796
     polar coord.: r, theta, phi [deg] :     1.229616    0.000000  360.000000

 ==============================================================================

 ==============================================================================
     atom number    2 relative position :   -0.0000   0.5774   3.5289
     charge :     4.047313  (integrated on a sphere of radius 0.287)
     magnetization :         -0.000000    0.000000    0.212962
     magnetization/charge:   -0.000000    0.000000    0.052618
     polar coord.: r, theta, phi [deg] :     0.212962    0.000000  360.000000

 ==============================================================================

 ==============================================================================
     atom number    3 relative position :    0.5000   0.2887   2.7554
     charge :     4.047313  (integrated on a sphere of radius 0.287)
     magnetization :         -0.000000    0.000000    0.212962
     magnetization/charge:   -0.000000    0.000000    0.052618
     polar coord.: r, theta, phi [deg] :     0.212962    0.000000  360.000000

 ==============================================================================

     total cpu time spent up to now is       27.1 secs

     End of self-consistent calculation

          k = 0.0000 0.0000 0.0000 ( 48107 PWs)   bands (ev):

  -105.8684-104.5354 -67.4577 -67.0842 -65.5743 -64.8912 -64.4691 -64.1490
   -15.7880 -15.5739 -14.8497 -14.6066  -6.8900  -6.7126  -5.7714  -5.6584
    -4.7026  -4.4146  -4.1849  -4.1740  -4.0506  -3.9680  -3.8229  -3.2537
    -3.2462  -3.1044  -2.8735  -2.7824  -2.4527  -2.2135  -2.1953  -1.6325
    -1.0448  -0.6428   1.7742   1.9023   2.5169   2.6184   2.6829   2.7539

     occupation numbers 
     1.0000   1.0000   1.0000   1.0000   1.0000   1.0000   1.0000   1.0000
     1.0000   1.0000   1.0000   1.0000   1.0000   1.0000   1.0000   1.0000
     1.0000   1.0000   1.0000   1.0000   1.0000   1.0000   1.0000   1.0000
     1.0000   1.0000   1.0000   1.0000   1.0000   1.0000   1.0000   0.2543
     0.0000   0.0000   0.0000   0.0000   0.0000   0.0000   0.0000   0.0000

          k = 0.0000 0.1443 0.0000 ( 48142 PWs)   bands (ev):

  -105.8684-104.5354 -67.4577 -67.0842 -65.5743 -64.8913 -64.4691 -64.1491
   -15.6688 -15.4530 -14.7852 -14.5401  -6.7771  -6.6127  -5.8854  -5.6862
    -5.0194  -4.5537  -4.5017  -4.2863  -4.1647  -4.0101  -3.6554  -3.5200
    -3.3679  -3.2226  -3.0869  -2.8743  -2.7472  -2.4848  -2.4369  -1.9335
    -1.3231  -0.8891   2.2441   2.3665   2.8193   2.8954   2.9792   3.1170

     occupation numbers 
     1.0000   1.0000   1.0000   1.0000   1.0000   1.0000   1.0000   1.0000
     1.0000   1.0000   1.0000   1.0000   1.0000   1.0000   1.0000   1.0000
     1.0000   1.0000   1.0000   1.0000   1.0000   1.0000   1.0000   1.0000
     1.0000   1.0000   1.0000   1.0000   1.0000   1.0000   1.0000   1.0000
     0.0000   0.0000   0.0000   0.0000   0.0000   0.0000   0.0000   0.0000

          k = 0.0000 0.2887 0.0000 ( 48148 PWs)   bands (ev):

  -105.8684-104.5354 -67.4578 -67.0842 -65.5744 -64.8913 -64.4691 -64.1492
   -15.3459 -15.1248 -14.6302 -14.3802  -6.6097  -6.4996  -6.2053  -5.8371
    -5.6825  -5.4369  -4.9703  -4.5091  -4.4555  -4.1114  -3.9727  -3.7575
    -3.6331  -3.4616  -3.2697  -3.1806  -2.9203  -2.7821  -2.7046  -2.1128
    -1.5330  -0.9998   1.9813   2.1789   2.9351   3.0488   3.2303   3.3353

     occupation numbers 
     1.0000   1.0000   1.0000   1.0000   1.0000   1.0000   1.0000   1.0000
     1.0000   1.0000   1.0000   1.0000   1.0000   1.0000   1.0000   1.0000
     1.0000   1.0000   1.0000   1.0000   1.0000   1.0000   1.0000   1.0000
     1.0000   1.0000   1.0000   1.0000   1.0000   1.0000   1.0000   1.0000
     0.0000   0.0000   0.0000   0.0000   0.0000   0.0000   0.0000   0.0000

          k = 0.0000 0.4330 0.0000 ( 48212 PWs)   bands (ev):

  -105.8684-104.5354 -67.4579 -67.0842 -65.5745 -64.8914 -64.4691 -64.1493
   -14.9366 -14.7067 -14.4999 -14.2457  -7.2146  -7.0282  -6.5615  -6.3045
    -5.7015  -5.5624  -5.0221  -4.7055  -4.5016  -4.4134  -4.1760  -4.0834
    -3.9634  -3.7268  -3.6607  -3.2575  -3.0270  -2.9235  -2.5846  -2.1841
    -1.2850  -1.0174   1.1661   1.3932   3.0630   3.2121   3.5085   3.6716

     occupation numbers 
     1.0000   1.0000   1.0000   1.0000   1.0000   1.0000   1.0000   1.0000
     1.0000   1.0000   1.0000   1.0000   1.0000   1.0000   1.0000   1.0000
     1.0000   1.0000   1.0000   1.0000   1.0000   1.0000   1.0000   1.0000
     1.0000   1.0000   1.0000   1.0000   1.0000   1.0000   1.0000   1.0000
     0.0000   0.0000   0.0000   0.0000   0.0000   0.0000   0.0000   0.0000

          k = 0.0000-0.5774 0.0000 ( 48254 PWs)   bands (ev):

  -105.8684-104.5354 -67.4579 -67.0842 -65.5746 -64.8914 -64.4691 -64.1494
   -14.6902 -14.4995 -14.4550 -14.2441  -7.6109  -7.4232  -6.6754  -6.4940
    -5.6969  -5.5147  -4.7736  -4.6875  -4.6146  -4.4618  -4.2226  -4.1576
    -4.0652  -3.9751  -3.8324  -3.2689  -3.1274  -3.0324  -2.4859  -2.1947
    -1.1679  -1.0093   0.8824   1.1350   2.9674   3.1063   3.6937   3.8340

     occupation numbers 
     1.0000   1.0000   1.0000   1.0000   1.0000   1.0000   1.0000   1.0000
     1.0000   1.0000   1.0000   1.0000   1.0000   1.0000   1.0000   1.0000
     1.0000   1.0000   1.0000   1.0000   1.0000   1.0000   1.0000   1.0000
     1.0000   1.0000   1.0000   1.0000   1.0000   1.0000   1.0000   1.0000
     0.0000   0.0000   0.0000   0.0000   0.0000   0.0000   0.0000   0.0000

          k = 0.1250 0.2165 0.0000 ( 48125 PWs)   bands (ev):

  -105.8684-104.5354 -67.4578 -67.0842 -65.5744 -64.8913 -64.4691 -64.1491
   -15.4473 -15.2280 -14.6747 -14.4260  -6.6136  -6.4888  -6.0816  -5.7338
    -5.5072  -5.0474  -4.8265  -4.6876  -4.5586  -4.0075  -3.9157  -3.6133
    -3.5409  -3.3585  -3.2230  -3.2099  -2.8213  -2.6950  -2.4730  -2.3984
    -1.3808  -1.2422   2.6826   2.8822   2.9080   3.0171   3.0569   3.1469

     occupation numbers 
     1.0000   1.0000   1.0000   1.0000   1.0000   1.0000   1.0000   1.0000
     1.0000   1.0000   1.0000   1.0000   1.0000   1.0000   1.0000   1.0000
     1.0000   1.0000   1.0000   1.0000   1.0000   1.0000   1.0000   1.0000
     1.0000   1.0000   1.0000   1.0000   1.0000   1.0000   1.0000   1.0000
     0.0000   0.0000   0.0000   0.0000   0.0000   0.0000   0.0000   0.0000

          k = 0.1250 0.3608 0.0000 ( 48162 PWs)   bands (ev):

  -105.8684-104.5354 -67.4579 -67.0842 -65.5745 -64.8914 -64.4691 -64.1493
   -15.0771 -14.8504 -14.5267 -14.2734  -6.7972  -6.6238  -6.4409  -6.1582
    -5.7377  -5.5318  -5.1812  -5.0295  -4.6907  -4.3922  -4.1528  -3.9777
    -3.7937  -3.6794  -3.4092  -3.2162  -2.9545  -2.8601  -2.7269  -2.3840
    -1.4819  -1.1909   1.9923   2.2204   3.2766   3.4191   3.6698   3.7733

     occupation numbers 
     1.0000   1.0000   1.0000   1.0000   1.0000   1.0000   1.0000   1.0000
     1.0000   1.0000   1.0000   1.0000   1.0000   1.0000   1.0000   1.0000
     1.0000   1.0000   1.0000   1.0000   1.0000   1.0000   1.0000   1.0000
     1.0000   1.0000   1.0000   1.0000   1.0000   1.0000   1.0000   1.0000
     0.0000   0.0000   0.0000   0.0000   0.0000   0.0000   0.0000   0.0000

          k = 0.1250 0.5052 0.0000 ( 48212 PWs)   bands (ev):

  -105.8684-104.5354 -67.4579 -67.0842 -65.5746 -64.8914 -64.4691 -64.1494
   -14.7239 -14.4882 -14.4691 -14.2146  -7.4044  -7.2179  -6.6108  -6.3955
    -5.7238  -5.4998  -5.2141  -5.0427  -4.7369  -4.6048  -4.4944  -4.1649
    -3.9579  -3.9042  -3.6666  -3.1638  -3.1013  -2.9496  -2.6464  -2.4174
    -1.3694  -1.1531   1.4264   1.6700   3.5833   3.7265   3.9897   4.1404

     occupation numbers 
     1.0000   1.0000   1.0000   1.0000   1.0000   1.0000   1.0000   1.0000
     1.0000   1.0000   1.0000   1.0000   1.0000   1.0000   1.0000   1.0000
     1.0000   1.0000   1.0000   1.0000   1.0000   1.0000   1.0000   1.0000
     1.0000   1.0000   1.0000   1.0000   1.0000   1.0000   1.0000   1.0000
     0.0000   0.0000   0.0000   0.0000   0.0000   0.0000   0.0000   0.0000

          k = 0.2500 0.4330 0.0000 ( 48187 PWs)   bands (ev):

  -105.8684-104.5354 -67.4579 -67.0842 -65.5746 -64.8914 -64.4691 -64.1494
   -14.7510 -14.5151 -14.4457 -14.1913  -7.0802  -6.8905  -6.5715  -6.3540
    -5.9243  -5.5653  -5.5517  -5.3604  -4.8682  -4.7290  -4.5983  -4.0993
    -3.9348  -3.8338  -3.5265  -3.1299  -3.0953  -3.0165  -2.8515  -2.4556
    -1.6265  -1.1854   2.0491   2.2945   3.3712   3.5102   4.6340   4.7428

     occupation numbers 
     1.0000   1.0000   1.0000   1.0000   1.0000   1.0000   1.0000   1.0000
     1.0000   1.0000   1.0000   1.0000   1.0000   1.0000   1.0000   1.0000
     1.0000   1.0000   1.0000   1.0000   1.0000   1.0000   1.0000   1.0000
     1.0000   1.0000   1.0000   1.0000   1.0000   1.0000   1.0000   1.0000
     0.1243   0.0000   0.0000   0.0000   0.0000   0.0000   0.0000   0.0000

          k = 0.2500 0.5774 0.0000 ( 48231 PWs)   bands (ev):

  -105.8684-104.5354 -67.4580 -67.0842 -65.5746 -64.8915 -64.4691 -64.1494
   -14.5554 -14.4600 -14.3121 -14.2081  -7.2226  -7.0508  -6.5933  -6.3459
    -6.0792  -5.8394  -5.5347  -5.4431  -5.0943  -4.9581  -4.4433  -4.2935
    -3.9775  -3.7433  -3.6477  -3.2072  -3.0429  -2.9387  -2.8644  -2.6246
    -1.5279  -1.3157   1.8692   2.1104   4.0072   4.1693   4.1761   4.3263

     occupation numbers 
     1.0000   1.0000   1.0000   1.0000   1.0000   1.0000   1.0000   1.0000
     1.0000   1.0000   1.0000   1.0000   1.0000   1.0000   1.0000   1.0000
     1.0000   1.0000   1.0000   1.0000   1.0000   1.0000   1.0000   1.0000
     1.0000   1.0000   1.0000   1.0000   1.0000   1.0000   1.0000   1.0000
     0.0000   0.0000   0.0000   0.0000   0.0000   0.0000   0.0000   0.0000

     the Fermi energy is    -1.6372 ev

!    total energy              =    -387.34779730 Ry
     estimated scf accuracy    <       0.00000081 Ry
     smearing contrib. (-TS)   =      -0.00001811 Ry
     internal energy E=F+TS    =    -387.34777919 Ry

     The total energy is F=E-TS. E is the sum of the following terms:
     one-electron contribution =   -1776.23554188 Ry
     hartree contribution      =     889.07946456 Ry
     xc contribution           =     -58.82532981 Ry
     ewald contribution        =     558.63362794 Ry

     total magnetization       =    -0.00     0.00     1.93 Bohr mag/cell
     absolute magnetization    =     2.01 Bohr mag/cell

     convergence has been achieved in  11 iterations

     Writing output data file ./tmp/nso.save/
 
     init_run     :      1.91s CPU      2.08s WALL (       1 calls)
     electrons    :     24.36s CPU     24.82s WALL (       1 calls)

     Called by init_run:
     wfcinit      :      0.63s CPU      0.73s WALL (       1 calls)
     wfcinit:atom :      0.01s CPU      0.01s WALL (      10 calls)
     wfcinit:wfcr :      0.61s CPU      0.70s WALL (      10 calls)
     potinit      :      0.41s CPU      0.43s WALL (       1 calls)
     hinit0       :      0.77s CPU      0.81s WALL (       1 calls)

     Called by electrons:
     c_bands      :     20.08s CPU     20.41s WALL (      11 calls)
     sum_band     :      3.37s CPU      3.42s WALL (      11 calls)
     v_of_rho     :      0.66s CPU      0.68s WALL (      12 calls)
     v_h          :      0.01s CPU      0.01s WALL (      12 calls)
     v_xc         :      0.65s CPU      0.67s WALL (      12 calls)
     mix_rho      :      0.17s CPU      0.18s WALL (      11 calls)

     Called by c_bands:
     init_us_2    :      0.18s CPU      0.19s WALL (     230 calls)
     cegterg      :     18.51s CPU     18.82s WALL (     110 calls)

     Called by sum_band:
     sum_band:wei :      0.02s CPU      0.02s WALL (      11 calls)
     sum_band:loo :      3.24s CPU      3.29s WALL (      11 calls)
     sum_band:buf :      0.05s CPU      0.05s WALL (     110 calls)
     sum_band:ini :      0.09s CPU      0.09s WALL (     110 calls)

     Called by *egterg:
     cdiaghg      :      1.14s CPU      1.39s WALL (     529 calls)
     cegterg:over :      0.53s CPU      0.54s WALL (     419 calls)
     cegterg:upda :      0.33s CPU      0.33s WALL (     419 calls)
     cegterg:last :      0.31s CPU      0.31s WALL (     220 calls)
     h_psi        :     16.42s CPU     16.57s WALL (     539 calls)
     g_psi        :      0.04s CPU      0.04s WALL (     419 calls)

     Called by h_psi:
     h_psi:calbec :      0.54s CPU      0.55s WALL (     539 calls)
     vloc_psi     :     15.29s CPU     15.42s WALL (     539 calls)
     add_vuspsi   :      0.53s CPU      0.53s WALL (     539 calls)

     General routines
     calbec       :      0.54s CPU      0.54s WALL (     539 calls)
     fft          :      0.56s CPU      0.57s WALL (     382 calls)
     ffts         :      0.05s CPU      0.06s WALL (      92 calls)
     fftw         :     16.87s CPU     17.03s WALL (   54232 calls)
     interpolate  :      0.06s CPU      0.06s WALL (      48 calls)
 
     Parallel routines
 
     PWSCF        :     27.61s CPU     29.70s WALL

 
   This run was terminated on:  17: 5:51   8Mar2023            

=------------------------------------------------------------------------------=
   JOB DONE.
=------------------------------------------------------------------------------=
