
     Program PWSCF v.7.1 starts on 27Jun2023 at 15:29:26 

     This program is part of the open-source Quantum ESPRESSO suite
     for quantum simulation of materials; please cite
         "P. Giannozzi et al., J. Phys.:Condens. Matter 21 395502 (2009);
         "P. Giannozzi et al., J. Phys.:Condens. Matter 29 465901 (2017);
         "P. Giannozzi et al., J. Chem. Phys. 152 154105 (2020);
          URL http://www.quantum-espresso.org", 
     in publications or presentations arising from this work. More details at
     http://www.quantum-espresso.org/quote

     Parallel version (MPI & OpenMP), running on      20 processor cores
     Number of MPI processes:                20
     Threads/MPI process:                     1

     MPI processes distributed on     1 nodes
     240471 MiB available memory on the printing compute node when the environment starts
 
     Reading input from input/nscf.in

     Current dimensions of program PWSCF are:
     Max number of different atomic species (ntypx) = 10
     Max number of k-points (npk) =  40000
     Max angular momentum in pseudopotentials (lmaxx) =  4

     Atomic positions and unit cell read from directory:
     ./tmp/nso.save/
     Atomic positions from file used, from input discarded
 

     Fixed quantization axis for GGA:     0.000000    0.000000    1.000000
 
     R & G space division:  proc/nbgrp/npool/nimage =      20
     Subspace diagonalization in iterative solution of the eigenvalue problem:
     a serial algorithm will be used

 
     Parallelization info
     --------------------
     sticks:   dense  smooth     PW     G-vecs:    dense   smooth      PW
     Min          93      89     24                20481    19267    2790
     Max          94      90     25                20502    19300    2817
     Sum        1879    1789    499               409943   385631   56191
 
     Using Slab Decomposition
 


     bravais-lattice index     =            0
     lattice parameter (alat)  =       7.3605  a.u.
     unit-cell volume          =    2170.2486 (a.u.)^3
     number of atoms/cell      =            3
     number of atomic types    =            2
     number of electrons       =        32.00
     number of Kohn-Sham states=           40
     kinetic-energy cutoff     =     120.0000  Ry
     charge density cutoff     =     500.0000  Ry
     Exchange-correlation= PBE
                           (   1   4   3   4   0   0   0)
     Noncollinear calculation with spin-orbit


     celldm(1)=   7.360481  celldm(2)=   0.000000  celldm(3)=   0.000000
     celldm(4)=   0.000000  celldm(5)=   0.000000  celldm(6)=   0.000000

     crystal axes: (cart. coord. in units of alat)
               a(1) = (   1.000000   0.000000   0.000000 )  
               a(2) = (  -0.500000   0.866025   0.000000 )  
               a(3) = (   0.000000   0.000000   6.284350 )  

     reciprocal axes: (cart. coord. in units 2 pi/alat)
               b(1) = (  1.000000  0.577350  0.000000 )  
               b(2) = (  0.000000  1.154701  0.000000 )  
               b(3) = (  0.000000  0.000000  0.159125 )  


     PseudoPot. # 1 for Ni read from file:
     ../pseudo/Ni.upf
     MD5 check sum: 14a7e289c5fff9cacaba393040e62f02
     Pseudo is Norm-conserving + core correction, Zval = 18.0
     Generated using ONCVPSP code by D. R. Hamann
     Using radial grid of 1372 points, 10 beta functions with: 
                l(1) =   0
                l(2) =   0
                l(3) =   1
                l(4) =   1
                l(5) =   1
                l(6) =   1
                l(7) =   2
                l(8) =   2
                l(9) =   2
               l(10) =   2

     PseudoPot. # 2 for I  read from file:
     ../pseudo/I.upf
     MD5 check sum: 301f7009ca0a2b18b0adf53dca02d42f
     Pseudo is Norm-conserving + core correction, Zval =  7.0
     Generated using ONCVPSP code by D. R. Hamann
     Using radial grid of 1210 points, 10 beta functions with: 
                l(1) =   0
                l(2) =   0
                l(3) =   1
                l(4) =   1
                l(5) =   1
                l(6) =   1
                l(7) =   2
                l(8) =   2
                l(9) =   2
               l(10) =   2

     atomic species   valence    mass     pseudopotential
        Ni            18.00    58.69340     Ni( 1.00)
        I              7.00   126.90447     I ( 1.00)

     No symmetry found


                                    s                        frac. trans.

      isym =  1     identity                                     

 Time Reversal            0
 cryst.   s( 1) = (     1          0          0      )
                  (     0          1          0      )
                  (     0          0          1      )

 cart.    s( 1) = (  1.0000000 -0.0000000  0.0000000 )
                  (  0.0000000  1.0000000  0.0000000 )
                  (  0.0000000  0.0000000  1.0000000 )


   Cartesian axes

     site n.     atom                  positions (alat units)
         1           Ni  tau(   1) = (   0.0000000   0.0000000   3.1421749  )
         2           I   tau(   2) = (  -0.0000000   0.5773503   3.5289144  )
         3           I   tau(   3) = (   0.5000000   0.2886751   2.7554354  )

   Crystallographic axes

     site n.     atom                  positions (cryst. coord.)
         1           Ni  tau(   1) = (  0.0000000  0.0000000  0.5000000  )
         2           I   tau(   2) = (  0.3333333  0.6666667  0.5615401  )
         3           I   tau(   3) = (  0.6666667  0.3333333  0.4384599  )

     number of k points=    61  Marzari-Vanderbilt smearing, width (Ry)=  0.0015
                       cart. coord. in units 2pi/alat
        k(    1) = (   0.0000000   0.0000000   0.0000000), wk =   0.0163934
        k(    2) = (   0.0166650   0.0288646   0.0000000), wk =   0.0163934
        k(    3) = (   0.0333300   0.0577293   0.0000000), wk =   0.0163934
        k(    4) = (   0.0499950   0.0865939   0.0000000), wk =   0.0163934
        k(    5) = (   0.0666600   0.1154585   0.0000000), wk =   0.0163934
        k(    6) = (   0.0833250   0.1443231   0.0000000), wk =   0.0163934
        k(    7) = (   0.0999900   0.1731878   0.0000000), wk =   0.0163934
        k(    8) = (   0.1166550   0.2020524   0.0000000), wk =   0.0163934
        k(    9) = (   0.1333200   0.2309170   0.0000000), wk =   0.0163934
        k(   10) = (   0.1499850   0.2597816   0.0000000), wk =   0.0163934
        k(   11) = (   0.1666500   0.2886463   0.0000000), wk =   0.0163934
        k(   12) = (   0.1833150   0.3175109   0.0000000), wk =   0.0163934
        k(   13) = (   0.1999800   0.3463755   0.0000000), wk =   0.0163934
        k(   14) = (   0.2166450   0.3752401   0.0000000), wk =   0.0163934
        k(   15) = (   0.2333100   0.4041048   0.0000000), wk =   0.0163934
        k(   16) = (   0.2499750   0.4329694   0.0000000), wk =   0.0163934
        k(   17) = (   0.2666400   0.4618340   0.0000000), wk =   0.0163934
        k(   18) = (   0.2833050   0.4906987   0.0000000), wk =   0.0163934
        k(   19) = (   0.2999700   0.5195633   0.0000000), wk =   0.0163934
        k(   20) = (   0.3166350   0.5484279   0.0000000), wk =   0.0163934
        k(   21) = (   0.3333000   0.5772925   0.0000000), wk =   0.0163934
        k(   22) = (   0.3416350   0.5628617   0.0000000), wk =   0.0163934
        k(   23) = (   0.3499700   0.5484308   0.0000000), wk =   0.0163934
        k(   24) = (   0.3583050   0.5339999   0.0000000), wk =   0.0163934
        k(   25) = (   0.3666400   0.5195691   0.0000000), wk =   0.0163934
        k(   26) = (   0.3749750   0.5051382   0.0000000), wk =   0.0163934
        k(   27) = (   0.3833100   0.4907073   0.0000000), wk =   0.0163934
        k(   28) = (   0.3916450   0.4762764   0.0000000), wk =   0.0163934
        k(   29) = (   0.3999800   0.4618456   0.0000000), wk =   0.0163934
        k(   30) = (   0.4083150   0.4474147   0.0000000), wk =   0.0163934
        k(   31) = (   0.4166500   0.4329838   0.0000000), wk =   0.0163934
        k(   32) = (   0.4249850   0.4185530   0.0000000), wk =   0.0163934
        k(   33) = (   0.4333200   0.4041221   0.0000000), wk =   0.0163934
        k(   34) = (   0.4416550   0.3896912   0.0000000), wk =   0.0163934
        k(   35) = (   0.4499900   0.3752604   0.0000000), wk =   0.0163934
        k(   36) = (   0.4583250   0.3608295   0.0000000), wk =   0.0163934
        k(   37) = (   0.4666600   0.3463986   0.0000000), wk =   0.0163934
        k(   38) = (   0.4749950   0.3319677   0.0000000), wk =   0.0163934
        k(   39) = (   0.4833300   0.3175369   0.0000000), wk =   0.0163934
        k(   40) = (   0.4916650   0.3031060   0.0000000), wk =   0.0163934
        k(   41) = (   0.5000000   0.2886751   0.0000000), wk =   0.0163934
        k(   42) = (   0.4750000   0.2742414   0.0000000), wk =   0.0163934
        k(   43) = (   0.4500000   0.2598076   0.0000000), wk =   0.0163934
        k(   44) = (   0.4250000   0.2453739   0.0000000), wk =   0.0163934
        k(   45) = (   0.4000000   0.2309401   0.0000000), wk =   0.0163934
        k(   46) = (   0.3750000   0.2165064   0.0000000), wk =   0.0163934
        k(   47) = (   0.3500000   0.2020726   0.0000000), wk =   0.0163934
        k(   48) = (   0.3250000   0.1876388   0.0000000), wk =   0.0163934
        k(   49) = (   0.3000000   0.1732051   0.0000000), wk =   0.0163934
        k(   50) = (   0.2750000   0.1587713   0.0000000), wk =   0.0163934
        k(   51) = (   0.2500000   0.1443376   0.0000000), wk =   0.0163934
        k(   52) = (   0.2250000   0.1299038   0.0000000), wk =   0.0163934
        k(   53) = (   0.2000000   0.1154701   0.0000000), wk =   0.0163934
        k(   54) = (   0.1750000   0.1010363   0.0000000), wk =   0.0163934
        k(   55) = (   0.1500000   0.0866025   0.0000000), wk =   0.0163934
        k(   56) = (   0.1250000   0.0721688   0.0000000), wk =   0.0163934
        k(   57) = (   0.1000000   0.0577350   0.0000000), wk =   0.0163934
        k(   58) = (   0.0750000   0.0433013   0.0000000), wk =   0.0163934
        k(   59) = (   0.0500000   0.0288675   0.0000000), wk =   0.0163934
        k(   60) = (   0.0250000   0.0144338   0.0000000), wk =   0.0163934
        k(   61) = (   0.0000000   0.0000000   0.0000000), wk =   0.0163934

                       cryst. coord.
        k(    1) = (   0.0000000   0.0000000   0.0000000), wk =   0.0163934
        k(    2) = (   0.0166650   0.0166650   0.0000000), wk =   0.0163934
        k(    3) = (   0.0333300   0.0333300   0.0000000), wk =   0.0163934
        k(    4) = (   0.0499950   0.0499950   0.0000000), wk =   0.0163934
        k(    5) = (   0.0666600   0.0666600   0.0000000), wk =   0.0163934
        k(    6) = (   0.0833250   0.0833250   0.0000000), wk =   0.0163934
        k(    7) = (   0.0999900   0.0999900   0.0000000), wk =   0.0163934
        k(    8) = (   0.1166550   0.1166550   0.0000000), wk =   0.0163934
        k(    9) = (   0.1333200   0.1333200   0.0000000), wk =   0.0163934
        k(   10) = (   0.1499850   0.1499850   0.0000000), wk =   0.0163934
        k(   11) = (   0.1666500   0.1666500   0.0000000), wk =   0.0163934
        k(   12) = (   0.1833150   0.1833150   0.0000000), wk =   0.0163934
        k(   13) = (   0.1999800   0.1999800   0.0000000), wk =   0.0163934
        k(   14) = (   0.2166450   0.2166450   0.0000000), wk =   0.0163934
        k(   15) = (   0.2333100   0.2333100   0.0000000), wk =   0.0163934
        k(   16) = (   0.2499750   0.2499750   0.0000000), wk =   0.0163934
        k(   17) = (   0.2666400   0.2666400   0.0000000), wk =   0.0163934
        k(   18) = (   0.2833050   0.2833050   0.0000000), wk =   0.0163934
        k(   19) = (   0.2999700   0.2999700   0.0000000), wk =   0.0163934
        k(   20) = (   0.3166350   0.3166350   0.0000000), wk =   0.0163934
        k(   21) = (   0.3333000   0.3333000   0.0000000), wk =   0.0163934
        k(   22) = (   0.3416350   0.3166350   0.0000000), wk =   0.0163934
        k(   23) = (   0.3499700   0.2999700   0.0000000), wk =   0.0163934
        k(   24) = (   0.3583050   0.2833050   0.0000000), wk =   0.0163934
        k(   25) = (   0.3666400   0.2666400   0.0000000), wk =   0.0163934
        k(   26) = (   0.3749750   0.2499750   0.0000000), wk =   0.0163934
        k(   27) = (   0.3833100   0.2333100   0.0000000), wk =   0.0163934
        k(   28) = (   0.3916450   0.2166450   0.0000000), wk =   0.0163934
        k(   29) = (   0.3999800   0.1999800   0.0000000), wk =   0.0163934
        k(   30) = (   0.4083150   0.1833150   0.0000000), wk =   0.0163934
        k(   31) = (   0.4166500   0.1666500   0.0000000), wk =   0.0163934
        k(   32) = (   0.4249850   0.1499850   0.0000000), wk =   0.0163934
        k(   33) = (   0.4333200   0.1333200   0.0000000), wk =   0.0163934
        k(   34) = (   0.4416550   0.1166550   0.0000000), wk =   0.0163934
        k(   35) = (   0.4499900   0.0999900   0.0000000), wk =   0.0163934
        k(   36) = (   0.4583250   0.0833250   0.0000000), wk =   0.0163934
        k(   37) = (   0.4666600   0.0666600   0.0000000), wk =   0.0163934
        k(   38) = (   0.4749950   0.0499950   0.0000000), wk =   0.0163934
        k(   39) = (   0.4833300   0.0333300   0.0000000), wk =   0.0163934
        k(   40) = (   0.4916650   0.0166650   0.0000000), wk =   0.0163934
        k(   41) = (   0.5000000  -0.0000000   0.0000000), wk =   0.0163934
        k(   42) = (   0.4750000  -0.0000000   0.0000000), wk =   0.0163934
        k(   43) = (   0.4500000   0.0000000   0.0000000), wk =   0.0163934
        k(   44) = (   0.4250000  -0.0000000   0.0000000), wk =   0.0163934
        k(   45) = (   0.4000000  -0.0000000   0.0000000), wk =   0.0163934
        k(   46) = (   0.3750000  -0.0000000   0.0000000), wk =   0.0163934
        k(   47) = (   0.3500000  -0.0000000   0.0000000), wk =   0.0163934
        k(   48) = (   0.3250000  -0.0000000   0.0000000), wk =   0.0163934
        k(   49) = (   0.3000000  -0.0000000   0.0000000), wk =   0.0163934
        k(   50) = (   0.2750000  -0.0000000   0.0000000), wk =   0.0163934
        k(   51) = (   0.2500000  -0.0000000   0.0000000), wk =   0.0163934
        k(   52) = (   0.2250000  -0.0000000   0.0000000), wk =   0.0163934
        k(   53) = (   0.2000000  -0.0000000   0.0000000), wk =   0.0163934
        k(   54) = (   0.1750000  -0.0000000   0.0000000), wk =   0.0163934
        k(   55) = (   0.1500000  -0.0000000   0.0000000), wk =   0.0163934
        k(   56) = (   0.1250000  -0.0000000   0.0000000), wk =   0.0163934
        k(   57) = (   0.1000000  -0.0000000   0.0000000), wk =   0.0163934
        k(   58) = (   0.0750000  -0.0000000   0.0000000), wk =   0.0163934
        k(   59) = (   0.0500000  -0.0000000   0.0000000), wk =   0.0163934
        k(   60) = (   0.0250000   0.0000000   0.0000000), wk =   0.0163934
        k(   61) = (   0.0000000   0.0000000   0.0000000), wk =   0.0163934

     Dense  grid:   409943 G-vectors     FFT dimensions: (  54,  54, 360)

     Smooth grid:   385631 G-vectors     FFT dimensions: (  54,  54, 324)

     Dynamical RAM for                 wfc:       2.94 MB

     Dynamical RAM for     wfc (w. buffer):       2.94 MB

     Dynamical RAM for           str. fact:       0.63 MB

     Dynamical RAM for           local pot:       0.00 MB

     Dynamical RAM for          nlocal pot:       3.75 MB

     Dynamical RAM for                qrad:       9.40 MB

     Dynamical RAM for          rho,v,vnew:       8.56 MB

     Dynamical RAM for           G-vectors:       1.32 MB

     Dynamical RAM for          h,s,v(r/c):       0.29 MB

     Dynamical RAM for          <psi|beta>:       0.12 MB

     Dynamical RAM for                 psi:       5.88 MB

     Dynamical RAM for                hpsi:       5.88 MB

     Dynamical RAM for      wfcinit/wfcrot:       4.45 MB

     Estimated static dynamical RAM per process >      30.73 MB

     Estimated max dynamical RAM per process >      42.91 MB

     Estimated total dynamical RAM >     858.18 MB
     Generating pointlists ...
     new r_m :   0.2867 (alat units)  2.1099 (a.u.) for type    1
     new r_m :   0.2867 (alat units)  2.1099 (a.u.) for type    2

     The potential is recalculated from file :
     ./tmp/nso.save/charge-density

     Starting wfcs are   36 randomized atomic wfcs +    4 random wfcs

     Band Structure Calculation
     Davidson diagonalization with overlap

     Computing kpt #:     1  of    61
     total cpu time spent up to now is        3.0 secs

     Computing kpt #:     2  of    61
     total cpu time spent up to now is        4.6 secs

     Computing kpt #:     3  of    61
     total cpu time spent up to now is        6.3 secs

     Computing kpt #:     4  of    61
     total cpu time spent up to now is        8.5 secs

     Computing kpt #:     5  of    61
     total cpu time spent up to now is       10.6 secs

     Computing kpt #:     6  of    61
     total cpu time spent up to now is       12.6 secs

     Computing kpt #:     7  of    61
     total cpu time spent up to now is       14.4 secs

     Computing kpt #:     8  of    61
     total cpu time spent up to now is       16.2 secs

     Computing kpt #:     9  of    61
     total cpu time spent up to now is       18.0 secs

     Computing kpt #:    10  of    61
     total cpu time spent up to now is       19.7 secs

     Computing kpt #:    11  of    61
     total cpu time spent up to now is       21.4 secs

     Computing kpt #:    12  of    61
     total cpu time spent up to now is       23.1 secs

     Computing kpt #:    13  of    61
     total cpu time spent up to now is       24.8 secs

     Computing kpt #:    14  of    61
     total cpu time spent up to now is       26.5 secs

     Computing kpt #:    15  of    61
     total cpu time spent up to now is       28.2 secs

     Computing kpt #:    16  of    61
     total cpu time spent up to now is       30.1 secs

     Computing kpt #:    17  of    61
     total cpu time spent up to now is       31.8 secs

     Computing kpt #:    18  of    61
     total cpu time spent up to now is       33.4 secs

     Computing kpt #:    19  of    61
     total cpu time spent up to now is       35.0 secs

     Computing kpt #:    20  of    61
     total cpu time spent up to now is       36.5 secs

     Computing kpt #:    21  of    61
     total cpu time spent up to now is       38.0 secs

     Computing kpt #:    22  of    61
     total cpu time spent up to now is       39.5 secs

     Computing kpt #:    23  of    61
     total cpu time spent up to now is       41.1 secs

     Computing kpt #:    24  of    61
     total cpu time spent up to now is       42.6 secs

     Computing kpt #:    25  of    61
     total cpu time spent up to now is       44.2 secs

     Computing kpt #:    26  of    61
     total cpu time spent up to now is       45.8 secs

     Computing kpt #:    27  of    61
     total cpu time spent up to now is       47.4 secs

     Computing kpt #:    28  of    61
     total cpu time spent up to now is       49.0 secs

     Computing kpt #:    29  of    61
     total cpu time spent up to now is       50.6 secs

     Computing kpt #:    30  of    61
     total cpu time spent up to now is       52.3 secs

     Computing kpt #:    31  of    61
     total cpu time spent up to now is       54.3 secs

     Computing kpt #:    32  of    61
     total cpu time spent up to now is       56.6 secs

     Computing kpt #:    33  of    61
     total cpu time spent up to now is       58.7 secs

     Computing kpt #:    34  of    61
     total cpu time spent up to now is       60.7 secs

     Computing kpt #:    35  of    61
     total cpu time spent up to now is       62.3 secs

     Computing kpt #:    36  of    61
     total cpu time spent up to now is       63.9 secs

     Computing kpt #:    37  of    61
     total cpu time spent up to now is       65.7 secs

     Computing kpt #:    38  of    61
     total cpu time spent up to now is       67.5 secs

     Computing kpt #:    39  of    61
     total cpu time spent up to now is       69.3 secs

     Computing kpt #:    40  of    61
     total cpu time spent up to now is       70.9 secs

     Computing kpt #:    41  of    61
     total cpu time spent up to now is       72.4 secs

     Computing kpt #:    42  of    61
     total cpu time spent up to now is       74.0 secs

     Computing kpt #:    43  of    61
     total cpu time spent up to now is       75.6 secs

     Computing kpt #:    44  of    61
     total cpu time spent up to now is       77.1 secs

     Computing kpt #:    45  of    61
     total cpu time spent up to now is       78.7 secs

     Computing kpt #:    46  of    61
     total cpu time spent up to now is       80.3 secs

     Computing kpt #:    47  of    61
     total cpu time spent up to now is       81.9 secs

     Computing kpt #:    48  of    61
     total cpu time spent up to now is       83.5 secs

     Computing kpt #:    49  of    61
     total cpu time spent up to now is       85.1 secs

     Computing kpt #:    50  of    61
     total cpu time spent up to now is       86.8 secs

     Computing kpt #:    51  of    61
     total cpu time spent up to now is       88.5 secs

     Computing kpt #:    52  of    61
     total cpu time spent up to now is       90.1 secs

     Computing kpt #:    53  of    61
     total cpu time spent up to now is       91.8 secs

     Computing kpt #:    54  of    61
     total cpu time spent up to now is       93.5 secs

     Computing kpt #:    55  of    61
     total cpu time spent up to now is       95.2 secs

     Computing kpt #:    56  of    61
     total cpu time spent up to now is       97.2 secs

     Computing kpt #:    57  of    61
     total cpu time spent up to now is       99.4 secs

     Computing kpt #:    58  of    61
     total cpu time spent up to now is      101.3 secs

     Computing kpt #:    59  of    61
     total cpu time spent up to now is      103.0 secs

     Computing kpt #:    60  of    61
     total cpu time spent up to now is      104.7 secs

     Computing kpt #:    61  of    61
     total cpu time spent up to now is      106.5 secs

     ethr =  3.12E-09,  avg # of iterations = 38.2

     total cpu time spent up to now is      106.5 secs

     End of band structure calculation

          k = 0.0000 0.0000 0.0000 ( 48107 PWs)   bands (ev):

  -105.8891-104.5558 -67.4782 -67.1041 -65.5948 -64.9112 -64.4889 -64.1690
   -15.7926 -15.5784 -14.8529 -14.6100  -6.8942  -6.7206  -5.7826  -5.6741
    -4.7141  -4.4260  -4.2021  -4.1916  -4.0509  -3.9747  -3.8388  -3.2707
    -3.2627  -3.1203  -2.8737  -2.7889  -2.4571  -2.2173  -2.2038  -1.6401
    -1.0561  -0.6526   1.7714   1.9000   2.5107   2.6128   2.6839   2.7545

     occupation numbers 
     1.0000   1.0000   1.0000   1.0000   1.0000   1.0000   1.0000   1.0000
     1.0000   1.0000   1.0000   1.0000   1.0000   1.0000   1.0000   1.0000
     1.0000   1.0000   1.0000   1.0000   1.0000   1.0000   1.0000   1.0000
     1.0000   1.0000   1.0000   1.0000   1.0000   1.0000   1.0000   0.4401
     0.0000   0.0000   0.0000   0.0000   0.0000   0.0000   0.0000   0.0000

          k = 0.0167 0.0289 0.0000 ( 48103 PWs)   bands (ev):

  -105.8891-104.5558 -67.4782 -67.1041 -65.5948 -64.9112 -64.4889 -64.1690
   -15.7861 -15.5718 -14.8493 -14.6063  -6.8877  -6.7148  -5.7868  -5.6783
    -4.7281  -4.4390  -4.2167  -4.2085  -4.0475  -3.9680  -3.8250  -3.2793
    -3.2740  -3.1359  -2.8827  -2.7864  -2.5023  -2.2466  -2.1981  -1.6696
    -1.0683  -0.6795   1.8045   1.9326   2.5629   2.6685   2.6933   2.7640

     occupation numbers 
     1.0000   1.0000   1.0000   1.0000   1.0000   1.0000   1.0000   1.0000
     1.0000   1.0000   1.0000   1.0000   1.0000   1.0000   1.0000   1.0000
     1.0000   1.0000   1.0000   1.0000   1.0000   1.0000   1.0000   1.0000
     1.0000   1.0000   1.0000   1.0000   1.0000   1.0000   1.0000   1.0803
     0.0000   0.0000   0.0000   0.0000   0.0000   0.0000   0.0000   0.0000

          k = 0.0333 0.0577 0.0000 ( 48127 PWs)   bands (ev):

  -105.8891-104.5558 -67.4782 -67.1041 -65.5948 -64.9112 -64.4889 -64.1690
   -15.7667 -15.5522 -14.8386 -14.5953  -6.8687  -6.6977  -5.8017  -5.6880
    -4.7744  -4.4687  -4.2745  -4.2306  -4.0445  -3.9694  -3.7828  -3.3171
    -3.3021  -3.1709  -2.9115  -2.7836  -2.6093  -2.3100  -2.2137  -1.7478
    -1.1082  -0.7475   1.8972   2.0236   2.6901   2.7385   2.7806   2.8330

     occupation numbers 
     1.0000   1.0000   1.0000   1.0000   1.0000   1.0000   1.0000   1.0000
     1.0000   1.0000   1.0000   1.0000   1.0000   1.0000   1.0000   1.0000
     1.0000   1.0000   1.0000   1.0000   1.0000   1.0000   1.0000   1.0000
     1.0000   1.0000   1.0000   1.0000   1.0000   1.0000   1.0000   1.0000
     0.0000   0.0000   0.0000   0.0000   0.0000   0.0000   0.0000   0.0000

          k = 0.0500 0.0866 0.0000 ( 48139 PWs)   bands (ev):

  -105.8891-104.5558 -67.4782 -67.1041 -65.5948 -64.9112 -64.4889 -64.1690
   -15.7347 -15.5197 -14.8211 -14.5773  -6.8378  -6.6703  -5.8312  -5.6970
    -4.8591  -4.4977  -4.3559  -4.2712  -4.0622  -3.9863  -3.7277  -3.3966
    -3.3386  -3.2027  -2.9638  -2.8028  -2.7222  -2.3868  -2.2636  -1.8522
    -1.1770  -0.8320   2.0324   2.1567   2.7489   2.8259   2.9326   3.0464

     occupation numbers 
     1.0000   1.0000   1.0000   1.0000   1.0000   1.0000   1.0000   1.0000
     1.0000   1.0000   1.0000   1.0000   1.0000   1.0000   1.0000   1.0000
     1.0000   1.0000   1.0000   1.0000   1.0000   1.0000   1.0000   1.0000
     1.0000   1.0000   1.0000   1.0000   1.0000   1.0000   1.0000   1.0000
     0.0000   0.0000   0.0000   0.0000   0.0000   0.0000   0.0000   0.0000

          k = 0.0667 0.1155 0.0000 ( 48115 PWs)   bands (ev):

  -105.8891-104.5558 -67.4782 -67.1041 -65.5948 -64.9112 -64.4889 -64.1691
   -15.6905 -15.4749 -14.7975 -14.5529  -6.7964  -6.6345  -5.8756  -5.7026
    -4.9780  -4.5214  -4.4637  -4.3369  -4.1298  -4.0053  -3.6824  -3.4941
    -3.3753  -3.2284  -3.0399  -2.9039  -2.7608  -2.4606  -2.3357  -1.9661
    -1.2609  -0.9193   2.1918   2.3141   2.8034   2.8818   3.1503   3.1864

     occupation numbers 
     1.0000   1.0000   1.0000   1.0000   1.0000   1.0000   1.0000   1.0000
     1.0000   1.0000   1.0000   1.0000   1.0000   1.0000   1.0000   1.0000
     1.0000   1.0000   1.0000   1.0000   1.0000   1.0000   1.0000   1.0000
     1.0000   1.0000   1.0000   1.0000   1.0000   1.0000   1.0000   1.0000
     0.0000   0.0000   0.0000   0.0000   0.0000   0.0000   0.0000   0.0000

          k = 0.0833 0.1443 0.0000 ( 48105 PWs)   bands (ev):

  -105.8891-104.5558 -67.4782 -67.1041 -65.5948 -64.9113 -64.4889 -64.1691
   -15.6349 -15.4185 -14.7683 -14.5228  -6.7469  -6.5931  -5.9308  -5.7066
    -5.1209  -4.6170  -4.5307  -4.4300  -4.2627  -4.0186  -3.6821  -3.5630
    -3.4007  -3.2590  -3.1284  -3.0237  -2.7767  -2.5292  -2.4048  -2.0858
    -1.3355  -1.0097   2.3614   2.4828   2.8673   2.9475   3.1012   3.2595

     occupation numbers 
     1.0000   1.0000   1.0000   1.0000   1.0000   1.0000   1.0000   1.0000
     1.0000   1.0000   1.0000   1.0000   1.0000   1.0000   1.0000   1.0000
     1.0000   1.0000   1.0000   1.0000   1.0000   1.0000   1.0000   1.0000
     1.0000   1.0000   1.0000   1.0000   1.0000   1.0000   1.0000   1.0000
     0.0000   0.0000   0.0000   0.0000   0.0000   0.0000   0.0000   0.0000

          k = 0.1000 0.1732 0.0000 ( 48137 PWs)   bands (ev):

  -105.8891-104.5558 -67.4782 -67.1041 -65.5949 -64.9113 -64.4889 -64.1691
   -15.5686 -15.3512 -14.7345 -14.4880  -6.6929  -6.5507  -5.9919  -5.7134
    -5.2780  -4.7874  -4.5801  -4.5293  -4.4373  -4.0246  -3.7587  -3.5775
    -3.4293  -3.3061  -3.1977  -3.1251  -2.7963  -2.6002  -2.4509  -2.2123
    -1.3825  -1.1051   2.5311   2.6561   2.9367   2.9683   3.0383   3.1629

     occupation numbers 
     1.0000   1.0000   1.0000   1.0000   1.0000   1.0000   1.0000   1.0000
     1.0000   1.0000   1.0000   1.0000   1.0000   1.0000   1.0000   1.0000
     1.0000   1.0000   1.0000   1.0000   1.0000   1.0000   1.0000   1.0000
     1.0000   1.0000   1.0000   1.0000   1.0000   1.0000   1.0000   1.0000
     0.0000   0.0000   0.0000   0.0000   0.0000   0.0000   0.0000   0.0000

          k = 0.1167 0.2021 0.0000 ( 48129 PWs)   bands (ev):

  -105.8891-104.5558 -67.4782 -67.1041 -65.5949 -64.9113 -64.4889 -64.1691
   -15.4928 -15.2742 -14.6974 -14.4496  -6.6402  -6.5136  -6.0554  -5.7301
    -5.4393  -4.9687  -4.7396  -4.6224  -4.5507  -4.0248  -3.8667  -3.5953
    -3.5097  -3.3448  -3.2291  -3.1976  -2.8213  -2.6730  -2.4728  -2.3431
    -1.3966  -1.2040   2.6672   2.8234   2.8857   3.0024   3.0574   3.1095

     occupation numbers 
     1.0000   1.0000   1.0000   1.0000   1.0000   1.0000   1.0000   1.0000
     1.0000   1.0000   1.0000   1.0000   1.0000   1.0000   1.0000   1.0000
     1.0000   1.0000   1.0000   1.0000   1.0000   1.0000   1.0000   1.0000
     1.0000   1.0000   1.0000   1.0000   1.0000   1.0000   1.0000   1.0000
     0.0000   0.0000   0.0000   0.0000   0.0000   0.0000   0.0000   0.0000

          k = 0.1333 0.2309 0.0000 ( 48147 PWs)   bands (ev):

  -105.8891-104.5558 -67.4783 -67.1041 -65.5949 -64.9113 -64.4889 -64.1692
   -15.4089 -15.1888 -14.6581 -14.4091  -6.5983  -6.4897  -6.1203  -5.7744
    -5.5843  -5.1382  -4.9277  -4.7735  -4.5863  -4.0256  -3.9818  -3.6761
    -3.5802  -3.3983  -3.2478  -3.2263  -2.8505  -2.7406  -2.4983  -2.4523
    -1.3831  -1.3007   2.6407   2.8670   2.9756   3.0566   3.0946   3.1819

     occupation numbers 
     1.0000   1.0000   1.0000   1.0000   1.0000   1.0000   1.0000   1.0000
     1.0000   1.0000   1.0000   1.0000   1.0000   1.0000   1.0000   1.0000
     1.0000   1.0000   1.0000   1.0000   1.0000   1.0000   1.0000   1.0000
     1.0000   1.0000   1.0000   1.0000   1.0000   1.0000   1.0000   1.0000
     0.0000   0.0000   0.0000   0.0000   0.0000   0.0000   0.0000   0.0000

          k = 0.1500 0.2598 0.0000 ( 48139 PWs)   bands (ev):

  -105.8891-104.5558 -67.4783 -67.1041 -65.5950 -64.9113 -64.4889 -64.1692
   -15.3184 -15.0966 -14.6182 -14.3679  -6.5816  -6.4860  -6.1908  -5.8745
    -5.6758  -5.2790  -5.0877  -4.9214  -4.6285  -4.1177  -4.0090  -3.8052
    -3.6230  -3.4824  -3.2639  -3.2332  -2.8817  -2.7992  -2.6059  -2.4582
    -1.4010  -1.3394   2.5407   2.7768   3.1180   3.1620   3.2416   3.2687

     occupation numbers 
     1.0000   1.0000   1.0000   1.0000   1.0000   1.0000   1.0000   1.0000
     1.0000   1.0000   1.0000   1.0000   1.0000   1.0000   1.0000   1.0000
     1.0000   1.0000   1.0000   1.0000   1.0000   1.0000   1.0000   1.0000
     1.0000   1.0000   1.0000   1.0000   1.0000   1.0000   1.0000   1.0000
     0.0000   0.0000   0.0000   0.0000   0.0000   0.0000   0.0000   0.0000

          k = 0.1666 0.2886 0.0000 ( 48163 PWs)   bands (ev):

  -105.8891-104.5558 -67.4783 -67.1041 -65.5950 -64.9113 -64.4889 -64.1693
   -15.2231 -14.9995 -14.5792 -14.3277  -6.6069  -6.5048  -6.2754  -6.0024
    -5.7232  -5.3842  -5.1940  -5.0608  -4.6809  -4.2444  -4.0096  -3.9320
    -3.6754  -3.5788  -3.2870  -3.2379  -2.9147  -2.8511  -2.7045  -2.4445
    -1.4788  -1.2965   2.4415   2.6829   3.1531   3.2743   3.3842   3.4784

     occupation numbers 
     1.0000   1.0000   1.0000   1.0000   1.0000   1.0000   1.0000   1.0000
     1.0000   1.0000   1.0000   1.0000   1.0000   1.0000   1.0000   1.0000
     1.0000   1.0000   1.0000   1.0000   1.0000   1.0000   1.0000   1.0000
     1.0000   1.0000   1.0000   1.0000   1.0000   1.0000   1.0000   1.0000
     0.0000   0.0000   0.0000   0.0000   0.0000   0.0000   0.0000   0.0000

          k = 0.1833 0.3175 0.0000 ( 48159 PWs)   bands (ev):

  -105.8891-104.5558 -67.4783 -67.1041 -65.5950 -64.9114 -64.4889 -64.1693
   -15.1253 -14.8995 -14.5427 -14.2900  -6.6805  -6.5454  -6.3745  -6.1158
    -5.7514  -5.4529  -5.2612  -5.1756  -4.7382  -4.3716  -4.0935  -3.9748
    -3.7429  -3.6743  -3.3292  -3.2319  -2.9523  -2.9026  -2.7708  -2.4287
    -1.5441  -1.2505   2.3495   2.5950   3.1738   3.3036   3.6108   3.7081

     occupation numbers 
     1.0000   1.0000   1.0000   1.0000   1.0000   1.0000   1.0000   1.0000
     1.0000   1.0000   1.0000   1.0000   1.0000   1.0000   1.0000   1.0000
     1.0000   1.0000   1.0000   1.0000   1.0000   1.0000   1.0000   1.0000
     1.0000   1.0000   1.0000   1.0000   1.0000   1.0000   1.0000   1.0000
     0.0000   0.0000   0.0000   0.0000   0.0000   0.0000   0.0000   0.0000

          k = 0.2000 0.3464 0.0000 ( 48131 PWs)   bands (ev):

  -105.8890-104.5558 -67.4783 -67.1041 -65.5950 -64.9114 -64.4888 -64.1693
   -15.0271 -14.7991 -14.5102 -14.2566  -6.7876  -6.6136  -6.4654  -6.2065
    -5.7734  -5.4883  -5.3444  -5.2356  -4.7856  -4.4971  -4.2282  -3.9706
    -3.8200  -3.7602  -3.3829  -3.2158  -2.9936  -2.9538  -2.8083  -2.4176
    -1.5927  -1.2120   2.2639   2.5119   3.1929   3.3264   3.8549   3.9534

     occupation numbers 
     1.0000   1.0000   1.0000   1.0000   1.0000   1.0000   1.0000   1.0000
     1.0000   1.0000   1.0000   1.0000   1.0000   1.0000   1.0000   1.0000
     1.0000   1.0000   1.0000   1.0000   1.0000   1.0000   1.0000   1.0000
     1.0000   1.0000   1.0000   1.0000   1.0000   1.0000   1.0000   1.0000
     0.0001   0.0000   0.0000   0.0000   0.0000   0.0000   0.0000   0.0000

          k = 0.2166 0.3752 0.0000 ( 48159 PWs)   bands (ev):

  -105.8890-104.5558 -67.4784 -67.1041 -65.5951 -64.9114 -64.4888 -64.1693
   -14.9310 -14.7005 -14.4830 -14.2289  -6.9029  -6.7109  -6.5242  -6.2767
    -5.8064  -5.5003  -5.4347  -5.2802  -4.8019  -4.6196  -4.3667  -3.9824
    -3.8833  -3.8299  -3.4390  -3.1925  -3.0361  -2.9955  -2.8319  -2.4173
    -1.6243  -1.1879   2.1836   2.4326   3.2244   3.3597   4.1128   4.2128

     occupation numbers 
     1.0000   1.0000   1.0000   1.0000   1.0000   1.0000   1.0000   1.0000
     1.0000   1.0000   1.0000   1.0000   1.0000   1.0000   1.0000   1.0000
     1.0000   1.0000   1.0000   1.0000   1.0000   1.0000   1.0000   1.0000
     1.0000   1.0000   1.0000   1.0000   1.0000   1.0000   1.0000   1.0000
     0.0706   0.0000   0.0000   0.0000   0.0000   0.0000   0.0000   0.0000

          k = 0.2333 0.4041 0.0000 ( 48177 PWs)   bands (ev):

  -105.8890-104.5558 -67.4784 -67.1041 -65.5951 -64.9114 -64.4888 -64.1694
   -14.8395 -14.6065 -14.4624 -14.2081  -7.0068  -6.8117  -6.5584  -6.3269
    -5.8604  -5.5196  -5.5029  -5.3373  -4.7913  -4.7275  -4.5014  -4.0380
    -3.9164  -3.8629  -3.4924  -3.1653  -3.0795  -3.0201  -2.8504  -2.4321
    -1.6393  -1.1826   2.1090   2.3578   3.2801   3.4172   4.3789   4.4816

     occupation numbers 
     1.0000   1.0000   1.0000   1.0000   1.0000   1.0000   1.0000   1.0000
     1.0000   1.0000   1.0000   1.0000   1.0000   1.0000   1.0000   1.0000
     1.0000   1.0000   1.0000   1.0000   1.0000   1.0000   1.0000   1.0000
     1.0000   1.0000   1.0000   1.0000   1.0000   1.0000   1.0000   1.0000
     0.4138   0.0000   0.0000   0.0000   0.0000   0.0000   0.0000   0.0000

          k = 0.2500 0.4330 0.0000 ( 48187 PWs)   bands (ev):

  -105.8890-104.5558 -67.4784 -67.1041 -65.5951 -64.9114 -64.4888 -64.1694
   -14.7550 -14.5193 -14.4492 -14.1950  -7.0874  -6.8951  -6.5790  -6.3572
    -5.9345  -5.5723  -5.5609  -5.3721  -4.8729  -4.7366  -4.6059  -4.1089
    -3.9499  -3.8497  -3.5406  -3.1458  -3.1124  -3.0271  -2.8664  -2.4642
    -1.6392  -1.1976   2.0422   2.2897   3.3677   3.5079   4.6319   4.7414

     occupation numbers 
     1.0000   1.0000   1.0000   1.0000   1.0000   1.0000   1.0000   1.0000
     1.0000   1.0000   1.0000   1.0000   1.0000   1.0000   1.0000   1.0000
     1.0000   1.0000   1.0000   1.0000   1.0000   1.0000   1.0000   1.0000
     1.0000   1.0000   1.0000   1.0000   1.0000   1.0000   1.0000   1.0000
     0.4078   0.0000   0.0000   0.0000   0.0000   0.0000   0.0000   0.0000

          k = 0.2666 0.4618 0.0000 ( 48211 PWs)   bands (ev):

  -105.8890-104.5558 -67.4784 -67.1041 -65.5951 -64.9114 -64.4888 -64.1694
   -14.6796 -14.4448 -14.4402 -14.1901  -7.1385  -6.9519  -6.5923  -6.3694
    -6.0213  -5.6749  -5.5890  -5.3778  -4.9861  -4.8071  -4.5937  -4.1750
    -3.9731  -3.8208  -3.5822  -3.1708  -3.0988  -3.0170  -2.8801  -2.5132
    -1.6252  -1.2314   1.9861   2.2317   3.4899   3.6349   4.7348   4.8727

     occupation numbers 
     1.0000   1.0000   1.0000   1.0000   1.0000   1.0000   1.0000   1.0000
     1.0000   1.0000   1.0000   1.0000   1.0000   1.0000   1.0000   1.0000
     1.0000   1.0000   1.0000   1.0000   1.0000   1.0000   1.0000   1.0000
     1.0000   1.0000   1.0000   1.0000   1.0000   1.0000   1.0000   1.0000
     0.0809   0.0000   0.0000   0.0000   0.0000   0.0000   0.0000   0.0000

          k = 0.2833 0.4907 0.0000 ( 48211 PWs)   bands (ev):

  -105.8890-104.5558 -67.4784 -67.1042 -65.5951 -64.9114 -64.4888 -64.1694
   -14.6150 -14.4460 -14.3739 -14.1933  -7.1583  -6.9794  -6.6050  -6.3696
    -6.1099  -5.7888  -5.5867  -5.3804  -5.0962  -4.9119  -4.5327  -4.2305
    -3.9849  -3.7874  -3.6161  -3.2024  -3.0774  -2.9907  -2.8902  -2.5757
    -1.5991  -1.2800   1.9437   2.1869   3.6441   3.7956   4.6061   4.7636

     occupation numbers 
     1.0000   1.0000   1.0000   1.0000   1.0000   1.0000   1.0000   1.0000
     1.0000   1.0000   1.0000   1.0000   1.0000   1.0000   1.0000   1.0000
     1.0000   1.0000   1.0000   1.0000   1.0000   1.0000   1.0000   1.0000
     1.0000   1.0000   1.0000   1.0000   1.0000   1.0000   1.0000   1.0000
     0.0003   0.0000   0.0000   0.0000   0.0000   0.0000   0.0000   0.0000

          k = 0.3000 0.5196 0.0000 ( 48217 PWs)   bands (ev):

  -105.8890-104.5558 -67.4784 -67.1042 -65.5951 -64.9114 -64.4888 -64.1694
   -14.5622 -14.4555 -14.3186 -14.2041  -7.1504  -6.9809  -6.6239  -6.3675
    -6.1862  -5.8853  -5.5557  -5.3899  -5.1997  -5.0002  -4.4778  -4.2724
    -3.9895  -3.7561  -3.6416  -3.2266  -3.0608  -2.9536  -2.8948  -2.6456
    -1.5635  -1.3371   1.9168   2.1576   3.8211   3.9800   4.4392   4.6039

     occupation numbers 
     1.0000   1.0000   1.0000   1.0000   1.0000   1.0000   1.0000   1.0000
     1.0000   1.0000   1.0000   1.0000   1.0000   1.0000   1.0000   1.0000
     1.0000   1.0000   1.0000   1.0000   1.0000   1.0000   1.0000   1.0000
     1.0000   1.0000   1.0000   1.0000   1.0000   1.0000   1.0000   1.0000
     0.0000   0.0000   0.0000   0.0000   0.0000   0.0000   0.0000   0.0000

          k = 0.3166 0.5484 0.0000 ( 48229 PWs)   bands (ev):

  -105.8890-104.5558 -67.4784 -67.1042 -65.5951 -64.9114 -64.4888 -64.1694
   -14.5215 -14.4714 -14.2756 -14.2216  -7.1265  -6.9666  -6.6491  -6.3715
    -6.2383  -5.9454  -5.5005  -5.4030  -5.2948  -5.0573  -4.4433  -4.2967
    -3.9905  -3.7338  -3.6569  -3.2414  -3.0506  -2.9203  -2.8875  -2.7111
    -1.5233  -1.3934   1.9044   2.1434   4.0015   4.1672   4.2828   4.4508

     occupation numbers 
     1.0000   1.0000   1.0000   1.0000   1.0000   1.0000   1.0000   1.0000
     1.0000   1.0000   1.0000   1.0000   1.0000   1.0000   1.0000   1.0000
     1.0000   1.0000   1.0000   1.0000   1.0000   1.0000   1.0000   1.0000
     1.0000   1.0000   1.0000   1.0000   1.0000   1.0000   1.0000   1.0000
     0.0000   0.0000   0.0000   0.0000   0.0000   0.0000   0.0000   0.0000

          k = 0.3333 0.5773 0.0000 ( 48189 PWs)   bands (ev):

  -105.8890-104.5558 -67.4784 -67.1042 -65.5951 -64.9114 -64.4888 -64.1694
   -14.4933 -14.4918 -14.2455 -14.2438  -7.1114  -6.9563  -6.6635  -6.3763
    -6.2580  -5.9640  -5.4627  -5.3807  -5.3738  -5.0768  -4.4334  -4.3030
    -3.9905  -3.7261  -3.6612  -3.2462  -3.0474  -2.9111  -2.8735  -2.7432
    -1.4979  -1.4250   1.9022   2.1404   4.1477   4.1521   4.3169   4.3224

     occupation numbers 
     1.0000   1.0000   1.0000   1.0000   1.0000   1.0000   1.0000   1.0000
     1.0000   1.0000   1.0000   1.0000   1.0000   1.0000   1.0000   1.0000
     1.0000   1.0000   1.0000   1.0000   1.0000   1.0000   1.0000   1.0000
     1.0000   1.0000   1.0000   1.0000   1.0000   1.0000   1.0000   1.0000
     0.0000   0.0000   0.0000   0.0000   0.0000   0.0000   0.0000   0.0000

          k = 0.3416 0.5629 0.0000 ( 48219 PWs)   bands (ev):

  -105.8890-104.5558 -67.4784 -67.1042 -65.5951 -64.9114 -64.4888 -64.1694
   -14.5047 -14.4822 -14.2577 -14.2333  -7.1167  -6.9602  -6.6590  -6.3744
    -6.2521  -5.9598  -5.4696  -5.4094  -5.3333  -5.0720  -4.4350  -4.3023
    -3.9906  -3.7277  -3.6607  -3.2451  -3.0480  -2.9135  -2.8771  -2.7349
    -1.5049  -1.4162   1.9020   2.1404   4.0964   4.1971   4.2661   4.3660

     occupation numbers 
     1.0000   1.0000   1.0000   1.0000   1.0000   1.0000   1.0000   1.0000
     1.0000   1.0000   1.0000   1.0000   1.0000   1.0000   1.0000   1.0000
     1.0000   1.0000   1.0000   1.0000   1.0000   1.0000   1.0000   1.0000
     1.0000   1.0000   1.0000   1.0000   1.0000   1.0000   1.0000   1.0000
     0.0000   0.0000   0.0000   0.0000   0.0000   0.0000   0.0000   0.0000

          k = 0.3500 0.5484 0.0000 ( 48221 PWs)   bands (ev):

  -105.8890-104.5558 -67.4784 -67.1042 -65.5951 -64.9114 -64.4888 -64.1694
   -14.5176 -14.4743 -14.2716 -14.2247  -7.1330  -6.9727  -6.6463  -6.3689
    -6.2331  -5.9471  -5.4866  -5.4309  -5.2804  -5.0576  -4.4385  -4.3012
    -3.9908  -3.7320  -3.6601  -3.2420  -3.0498  -2.9216  -2.8818  -2.7148
    -1.5182  -1.3970   1.9001   2.1393   4.0535   4.2164   4.2270   4.3870

     occupation numbers 
     1.0000   1.0000   1.0000   1.0000   1.0000   1.0000   1.0000   1.0000
     1.0000   1.0000   1.0000   1.0000   1.0000   1.0000   1.0000   1.0000
     1.0000   1.0000   1.0000   1.0000   1.0000   1.0000   1.0000   1.0000
     1.0000   1.0000   1.0000   1.0000   1.0000   1.0000   1.0000   1.0000
     0.0000   0.0000   0.0000   0.0000   0.0000   0.0000   0.0000   0.0000

          k = 0.3583 0.5340 0.0000 ( 48227 PWs)   bands (ev):

  -105.8890-104.5558 -67.4784 -67.1042 -65.5951 -64.9114 -64.4888 -64.1694
   -14.5311 -14.4688 -14.2861 -14.2184  -7.1591  -6.9938  -6.6294  -6.3611
    -6.1994  -5.9247  -5.5086  -5.4430  -5.2228  -5.0342  -4.4427  -4.3005
    -3.9913  -3.7386  -3.6601  -3.2371  -3.0524  -2.9335  -2.8832  -2.6890
    -1.5304  -1.3745   1.8945   2.1347   4.0224   4.1889   4.2232   4.3837

     occupation numbers 
     1.0000   1.0000   1.0000   1.0000   1.0000   1.0000   1.0000   1.0000
     1.0000   1.0000   1.0000   1.0000   1.0000   1.0000   1.0000   1.0000
     1.0000   1.0000   1.0000   1.0000   1.0000   1.0000   1.0000   1.0000
     1.0000   1.0000   1.0000   1.0000   1.0000   1.0000   1.0000   1.0000
     0.0000   0.0000   0.0000   0.0000   0.0000   0.0000   0.0000   0.0000

          k = 0.3666 0.5196 0.0000 ( 48227 PWs)   bands (ev):

  -105.8890-104.5558 -67.4784 -67.1042 -65.5951 -64.9114 -64.4888 -64.1694
   -14.5450 -14.4653 -14.3009 -14.2142  -7.1924  -7.0220  -6.6132  -6.3535
    -6.1504  -5.8908  -5.5297  -5.4501  -5.1626  -5.0027  -4.4468  -4.3008
    -3.9921  -3.7475  -3.6615  -3.2310  -3.0554  -2.9448  -2.8817  -2.6612
    -1.5383  -1.3511   1.8828   2.1243   4.0050   4.1702   4.2049   4.3609

     occupation numbers 
     1.0000   1.0000   1.0000   1.0000   1.0000   1.0000   1.0000   1.0000
     1.0000   1.0000   1.0000   1.0000   1.0000   1.0000   1.0000   1.0000
     1.0000   1.0000   1.0000   1.0000   1.0000   1.0000   1.0000   1.0000
     1.0000   1.0000   1.0000   1.0000   1.0000   1.0000   1.0000   1.0000
     0.0000   0.0000   0.0000   0.0000   0.0000   0.0000   0.0000   0.0000

          k = 0.3750 0.5051 0.0000 ( 48231 PWs)   bands (ev):

  -105.8890-104.5558 -67.4784 -67.1042 -65.5951 -64.9114 -64.4888 -64.1694
   -14.5591 -14.4637 -14.3160 -14.2119  -7.2303  -7.0553  -6.6013  -6.3488
    -6.0867  -5.8449  -5.5450  -5.4552  -5.1014  -4.9646  -4.4504  -4.3019
    -3.9931  -3.7587  -3.6643  -3.2239  -3.0588  -2.9526  -2.8774  -2.6333
    -1.5404  -1.3281   1.8625   2.1056   4.0028   4.1658   4.1730   4.3239

     occupation numbers 
     1.0000   1.0000   1.0000   1.0000   1.0000   1.0000   1.0000   1.0000
     1.0000   1.0000   1.0000   1.0000   1.0000   1.0000   1.0000   1.0000
     1.0000   1.0000   1.0000   1.0000   1.0000   1.0000   1.0000   1.0000
     1.0000   1.0000   1.0000   1.0000   1.0000   1.0000   1.0000   1.0000
     0.0000   0.0000   0.0000   0.0000   0.0000   0.0000   0.0000   0.0000

          k = 0.3833 0.4907 0.0000 ( 48209 PWs)   bands (ev):

  -105.8890-104.5558 -67.4784 -67.1042 -65.5951 -64.9114 -64.4888 -64.1694
   -14.5733 -14.4636 -14.3311 -14.2113  -7.2705  -7.0919  -6.5952  -6.3491
    -6.0101  -5.7903  -5.5497  -5.4592  -5.0402  -4.9215  -4.4531  -4.3036
    -3.9945  -3.7723  -3.6687  -3.2163  -3.0628  -2.9569  -2.8687  -2.6063
    -1.5358  -1.3059   1.8314   2.0762   4.0169   4.1305   4.1787   4.2777

     occupation numbers 
     1.0000   1.0000   1.0000   1.0000   1.0000   1.0000   1.0000   1.0000
     1.0000   1.0000   1.0000   1.0000   1.0000   1.0000   1.0000   1.0000
     1.0000   1.0000   1.0000   1.0000   1.0000   1.0000   1.0000   1.0000
     1.0000   1.0000   1.0000   1.0000   1.0000   1.0000   1.0000   1.0000
     0.0000   0.0000   0.0000   0.0000   0.0000   0.0000   0.0000   0.0000

          k = 0.3916 0.4763 0.0000 ( 48181 PWs)   bands (ev):

  -105.8890-104.5558 -67.4784 -67.1042 -65.5951 -64.9114 -64.4888 -64.1694
   -14.5873 -14.4649 -14.3461 -14.2121  -7.3114  -7.1299  -6.5945  -6.3548
    -5.9245  -5.7357  -5.5348  -5.4623  -4.9799  -4.8758  -4.4548  -4.3056
    -3.9963  -3.7884  -3.6748  -3.2086  -3.0679  -2.9591  -2.8530  -2.5807
    -1.5238  -1.2848   1.7879   2.0343   4.0480   4.0822   4.2078   4.2261

     occupation numbers 
     1.0000   1.0000   1.0000   1.0000   1.0000   1.0000   1.0000   1.0000
     1.0000   1.0000   1.0000   1.0000   1.0000   1.0000   1.0000   1.0000
     1.0000   1.0000   1.0000   1.0000   1.0000   1.0000   1.0000   1.0000
     1.0000   1.0000   1.0000   1.0000   1.0000   1.0000   1.0000   1.0000
     0.0000   0.0000   0.0000   0.0000   0.0000   0.0000   0.0000   0.0000

          k = 0.4000 0.4618 0.0000 ( 48181 PWs)   bands (ev):

  -105.8890-104.5558 -67.4784 -67.1041 -65.5951 -64.9114 -64.4888 -64.1694
   -14.6010 -14.4672 -14.3606 -14.2139  -7.3518  -7.1681  -6.5979  -6.3649
    -5.8379  -5.6898  -5.4918  -5.4619  -4.9217  -4.8292  -4.4553  -4.3072
    -3.9984  -3.8064  -3.6825  -3.2014  -3.0742  -2.9618  -2.8274  -2.5569
    -1.5042  -1.2651   1.7312   1.9790   4.0283   4.0959   4.1700   4.2562

     occupation numbers 
     1.0000   1.0000   1.0000   1.0000   1.0000   1.0000   1.0000   1.0000
     1.0000   1.0000   1.0000   1.0000   1.0000   1.0000   1.0000   1.0000
     1.0000   1.0000   1.0000   1.0000   1.0000   1.0000   1.0000   1.0000
     1.0000   1.0000   1.0000   1.0000   1.0000   1.0000   1.0000   1.0000
     0.0000   0.0000   0.0000   0.0000   0.0000   0.0000   0.0000   0.0000

          k = 0.4083 0.4474 0.0000 ( 48161 PWs)   bands (ev):

  -105.8890-104.5558 -67.4784 -67.1041 -65.5951 -64.9114 -64.4888 -64.1694
   -14.6143 -14.4703 -14.3747 -14.2167  -7.3908  -7.2054  -6.6043  -6.3783
    -5.7695  -5.6404  -5.4669  -5.4107  -4.8663  -4.7834  -4.4544  -4.3079
    -4.0010  -3.8259  -3.6919  -3.1949  -3.0817  -2.9667  -2.7910  -2.5348
    -1.4771  -1.2468   1.6617   1.9104   3.9703   4.1016   4.1692   4.3208

     occupation numbers 
     1.0000   1.0000   1.0000   1.0000   1.0000   1.0000   1.0000   1.0000
     1.0000   1.0000   1.0000   1.0000   1.0000   1.0000   1.0000   1.0000
     1.0000   1.0000   1.0000   1.0000   1.0000   1.0000   1.0000   1.0000
     1.0000   1.0000   1.0000   1.0000   1.0000   1.0000   1.0000   1.0000
     0.0000   0.0000   0.0000   0.0000   0.0000   0.0000   0.0000   0.0000

          k = 0.4166 0.4330 0.0000 ( 48198 PWs)   bands (ev):

  -105.8890-104.5558 -67.4784 -67.1041 -65.5951 -64.9114 -64.4888 -64.1694
   -14.6269 -14.4740 -14.3881 -14.2201  -7.4278  -7.2412  -6.6127  -6.3935
    -5.7368  -5.5730  -5.4519  -5.3197  -4.8151  -4.7394  -4.4518  -4.3070
    -4.0041  -3.8461  -3.7031  -3.1896  -3.0903  -2.9742  -2.7450  -2.5141
    -1.4428  -1.2298   1.5805   1.8299   3.9052   4.0363   4.2491   4.3190

     occupation numbers 
     1.0000   1.0000   1.0000   1.0000   1.0000   1.0000   1.0000   1.0000
     1.0000   1.0000   1.0000   1.0000   1.0000   1.0000   1.0000   1.0000
     1.0000   1.0000   1.0000   1.0000   1.0000   1.0000   1.0000   1.0000
     1.0000   1.0000   1.0000   1.0000   1.0000   1.0000   1.0000   1.0000
     0.0000   0.0000   0.0000   0.0000   0.0000   0.0000   0.0000   0.0000

          k = 0.4250 0.4186 0.0000 ( 48190 PWs)   bands (ev):

  -105.8890-104.5558 -67.4784 -67.1041 -65.5951 -64.9114 -64.4888 -64.1694
   -14.6388 -14.4781 -14.4006 -14.2239  -7.4623  -7.2747  -6.6222  -6.4096
    -5.7253  -5.5278  -5.3954  -5.2208  -4.7689  -4.6977  -4.4471  -4.3037
    -4.0080  -3.8664  -3.7163  -3.1859  -3.0998  -2.9840  -2.6922  -2.4939
    -1.4025  -1.2139   1.4903   1.7402   3.8276   3.9579   4.1879   4.3113

     occupation numbers 
     1.0000   1.0000   1.0000   1.0000   1.0000   1.0000   1.0000   1.0000
     1.0000   1.0000   1.0000   1.0000   1.0000   1.0000   1.0000   1.0000
     1.0000   1.0000   1.0000   1.0000   1.0000   1.0000   1.0000   1.0000
     1.0000   1.0000   1.0000   1.0000   1.0000   1.0000   1.0000   1.0000
     0.0000   0.0000   0.0000   0.0000   0.0000   0.0000   0.0000   0.0000

          k = 0.4333 0.4041 0.0000 ( 48210 PWs)   bands (ev):

  -105.8890-104.5558 -67.4784 -67.1041 -65.5951 -64.9114 -64.4888 -64.1694
   -14.6497 -14.4823 -14.4122 -14.2278  -7.4939  -7.3055  -6.6322  -6.4256
    -5.7208  -5.5166  -5.2988  -5.1215  -4.7290  -4.6581  -4.4397  -4.2968
    -4.0128  -3.8860  -3.7315  -3.1846  -3.1098  -2.9951  -2.6375  -2.4719
    -1.3578  -1.1986   1.3942   1.6444   3.7291   3.8611   4.0742   4.1628

     occupation numbers 
     1.0000   1.0000   1.0000   1.0000   1.0000   1.0000   1.0000   1.0000
     1.0000   1.0000   1.0000   1.0000   1.0000   1.0000   1.0000   1.0000
     1.0000   1.0000   1.0000   1.0000   1.0000   1.0000   1.0000   1.0000
     1.0000   1.0000   1.0000   1.0000   1.0000   1.0000   1.0000   1.0000
     0.0000   0.0000   0.0000   0.0000   0.0000   0.0000   0.0000   0.0000

          k = 0.4417 0.3897 0.0000 ( 48232 PWs)   bands (ev):

  -105.8890-104.5558 -67.4784 -67.1041 -65.5951 -64.9114 -64.4888 -64.1694
   -14.6597 -14.4864 -14.4227 -14.2318  -7.5223  -7.3334  -6.6420  -6.4409
    -5.7185  -5.5157  -5.1920  -5.0272  -4.6960  -4.6204  -4.4288  -4.2851
    -4.0187  -3.9046  -3.7487  -3.1868  -3.1199  -3.0069  -2.5874  -2.4444
    -1.3112  -1.1827   1.2960   1.5467   3.6061   3.7424   3.9778   4.0524

     occupation numbers 
     1.0000   1.0000   1.0000   1.0000   1.0000   1.0000   1.0000   1.0000
     1.0000   1.0000   1.0000   1.0000   1.0000   1.0000   1.0000   1.0000
     1.0000   1.0000   1.0000   1.0000   1.0000   1.0000   1.0000   1.0000
     1.0000   1.0000   1.0000   1.0000   1.0000   1.0000   1.0000   1.0000
     0.0000   0.0000   0.0000   0.0000   0.0000   0.0000   0.0000   0.0000

          k = 0.4500 0.3753 0.0000 ( 48224 PWs)   bands (ev):

  -105.8890-104.5558 -67.4784 -67.1041 -65.5951 -64.9114 -64.4888 -64.1694
   -14.6685 -14.4904 -14.4321 -14.2356  -7.5473  -7.3580  -6.6514  -6.4549
    -5.7169  -5.5175  -5.0872  -4.9425  -4.6699  -4.5847  -4.4137  -4.2672
    -4.0262  -3.9219  -3.7675  -3.1939  -3.1287  -3.0182  -2.5494  -2.4067
    -1.2672  -1.1641   1.2000   1.4512   3.4684   3.6087   3.8973   3.9769

     occupation numbers 
     1.0000   1.0000   1.0000   1.0000   1.0000   1.0000   1.0000   1.0000
     1.0000   1.0000   1.0000   1.0000   1.0000   1.0000   1.0000   1.0000
     1.0000   1.0000   1.0000   1.0000   1.0000   1.0000   1.0000   1.0000
     1.0000   1.0000   1.0000   1.0000   1.0000   1.0000   1.0000   1.0000
     0.0000   0.0000   0.0000   0.0000   0.0000   0.0000   0.0000   0.0000

          k = 0.4583 0.3608 0.0000 ( 48216 PWs)   bands (ev):

  -105.8890-104.5558 -67.4784 -67.1041 -65.5951 -64.9114 -64.4888 -64.1694
   -14.6761 -14.4940 -14.4401 -14.2391  -7.5687  -7.3791  -6.6599  -6.4674
    -5.7155  -5.5199  -4.9905  -4.8707  -4.6505  -4.5517  -4.3934  -4.2420
    -4.0356  -3.9380  -3.7874  -3.2070  -3.1352  -3.0282  -2.5255  -2.3599
    -1.2316  -1.1392   1.1103   1.3620   3.3314   3.4739   3.8314   3.9250

     occupation numbers 
     1.0000   1.0000   1.0000   1.0000   1.0000   1.0000   1.0000   1.0000
     1.0000   1.0000   1.0000   1.0000   1.0000   1.0000   1.0000   1.0000
     1.0000   1.0000   1.0000   1.0000   1.0000   1.0000   1.0000   1.0000
     1.0000   1.0000   1.0000   1.0000   1.0000   1.0000   1.0000   1.0000
     0.0000   0.0000   0.0000   0.0000   0.0000   0.0000   0.0000   0.0000

          k = 0.4667 0.3464 0.0000 ( 48246 PWs)   bands (ev):

  -105.8890-104.5558 -67.4784 -67.1041 -65.5951 -64.9114 -64.4888 -64.1694
   -14.6825 -14.4972 -14.4468 -14.2421  -7.5864  -7.3965  -6.6672  -6.4779
    -5.7142  -5.5224  -4.9078  -4.8126  -4.6369  -4.5229  -4.3671  -4.2102
    -4.0476  -3.9531  -3.8070  -3.2253  -3.1394  -3.0363  -2.5116  -2.3110
    -1.2081  -1.1072   1.0308   1.2832   3.2073   3.3501   3.7788   3.8883

     occupation numbers 
     1.0000   1.0000   1.0000   1.0000   1.0000   1.0000   1.0000   1.0000
     1.0000   1.0000   1.0000   1.0000   1.0000   1.0000   1.0000   1.0000
     1.0000   1.0000   1.0000   1.0000   1.0000   1.0000   1.0000   1.0000
     1.0000   1.0000   1.0000   1.0000   1.0000   1.0000   1.0000   1.0000
     0.0000   0.0000   0.0000   0.0000   0.0000   0.0000   0.0000   0.0000

          k = 0.4750 0.3320 0.0000 ( 48256 PWs)   bands (ev):

  -105.8890-104.5558 -67.4784 -67.1041 -65.5951 -64.9114 -64.4888 -64.1694
   -14.6875 -14.4997 -14.4521 -14.2446  -7.6003  -7.4102  -6.6731  -6.4862
    -5.7130  -5.5245  -4.8448  -4.7659  -4.6282  -4.5001  -4.3344  -4.1763
    -4.0620  -3.9671  -3.8246  -3.2459  -3.1421  -3.0424  -2.5035  -2.2669
    -1.1942  -1.0737   0.9649   1.2180   3.1040   3.2459   3.7389   3.8623

     occupation numbers 
     1.0000   1.0000   1.0000   1.0000   1.0000   1.0000   1.0000   1.0000
     1.0000   1.0000   1.0000   1.0000   1.0000   1.0000   1.0000   1.0000
     1.0000   1.0000   1.0000   1.0000   1.0000   1.0000   1.0000   1.0000
     1.0000   1.0000   1.0000   1.0000   1.0000   1.0000   1.0000   1.0000
     0.0000   0.0000   0.0000   0.0000   0.0000   0.0000   0.0000   0.0000

          k = 0.4833 0.3175 0.0000 ( 48226 PWs)   bands (ev):

  -105.8890-104.5558 -67.4784 -67.1041 -65.5951 -64.9114 -64.4888 -64.1694
   -14.6911 -14.5016 -14.4559 -14.2464  -7.6102  -7.4201  -6.6775  -6.4923
    -5.7121  -5.5261  -4.8043  -4.7284  -4.6238  -4.4842  -4.2965  -4.1510
    -4.0747  -3.9796  -3.8385  -3.2651  -3.1437  -3.0466  -2.4989  -2.2324
    -1.1860  -1.0454   0.9157   1.1693   3.0267   3.1673   3.7109   3.8448

     occupation numbers 
     1.0000   1.0000   1.0000   1.0000   1.0000   1.0000   1.0000   1.0000
     1.0000   1.0000   1.0000   1.0000   1.0000   1.0000   1.0000   1.0000
     1.0000   1.0000   1.0000   1.0000   1.0000   1.0000   1.0000   1.0000
     1.0000   1.0000   1.0000   1.0000   1.0000   1.0000   1.0000   1.0000
     0.0000   0.0000   0.0000   0.0000   0.0000   0.0000   0.0000   0.0000

          k = 0.4917 0.3031 0.0000 ( 48230 PWs)   bands (ev):

  -105.8890-104.5558 -67.4784 -67.1041 -65.5951 -64.9114 -64.4888 -64.1694
   -14.6933 -14.5027 -14.4582 -14.2475  -7.6162  -7.4260  -6.6801  -6.4960
    -5.7114  -5.5271  -4.7832  -4.7027  -4.6226  -4.4749  -4.2590  -4.1510
    -4.0745  -3.9892  -3.8472  -3.2790  -3.1446  -3.0490  -2.4966  -2.2105
    -1.1815  -1.0267   0.8852   1.1393   2.9789   3.1186   3.6944   3.8347

     occupation numbers 
     1.0000   1.0000   1.0000   1.0000   1.0000   1.0000   1.0000   1.0000
     1.0000   1.0000   1.0000   1.0000   1.0000   1.0000   1.0000   1.0000
     1.0000   1.0000   1.0000   1.0000   1.0000   1.0000   1.0000   1.0000
     1.0000   1.0000   1.0000   1.0000   1.0000   1.0000   1.0000   1.0000
     0.0000   0.0000   0.0000   0.0000   0.0000   0.0000   0.0000   0.0000

          k = 0.5000 0.2887 0.0000 ( 48254 PWs)   bands (ev):

  -105.8890-104.5558 -67.4784 -67.1041 -65.5951 -64.9114 -64.4888 -64.1694
   -14.6940 -14.5031 -14.4589 -14.2479  -7.6182  -7.4280  -6.6810  -6.4973
    -5.7112  -5.5274  -4.7768  -4.6934  -4.6226  -4.4719  -4.2392  -4.1608
    -4.0701  -3.9931  -3.8502  -3.2840  -3.1449  -3.0497  -2.4958  -2.2030
    -1.1801  -1.0202   0.8749   1.1292   2.9628   3.1020   3.6889   3.8314

     occupation numbers 
     1.0000   1.0000   1.0000   1.0000   1.0000   1.0000   1.0000   1.0000
     1.0000   1.0000   1.0000   1.0000   1.0000   1.0000   1.0000   1.0000
     1.0000   1.0000   1.0000   1.0000   1.0000   1.0000   1.0000   1.0000
     1.0000   1.0000   1.0000   1.0000   1.0000   1.0000   1.0000   1.0000
     0.0000   0.0000   0.0000   0.0000   0.0000   0.0000   0.0000   0.0000

          k = 0.4750 0.2742 0.0000 ( 48238 PWs)   bands (ev):

  -105.8890-104.5558 -67.4784 -67.1041 -65.5951 -64.9114 -64.4888 -64.1694
   -14.7079 -14.5000 -14.4729 -14.2449  -7.6012  -7.4109  -6.6761  -6.4887
    -5.7112  -5.5277  -4.7841  -4.7244  -4.5972  -4.4701  -4.2385  -4.1589
    -4.0737  -3.9748  -3.8400  -3.2836  -3.1400  -3.0445  -2.4996  -2.2027
    -1.1845  -1.0209   0.8861   1.1389   2.9688   3.1086   3.6371   3.8256

     occupation numbers 
     1.0000   1.0000   1.0000   1.0000   1.0000   1.0000   1.0000   1.0000
     1.0000   1.0000   1.0000   1.0000   1.0000   1.0000   1.0000   1.0000
     1.0000   1.0000   1.0000   1.0000   1.0000   1.0000   1.0000   1.0000
     1.0000   1.0000   1.0000   1.0000   1.0000   1.0000   1.0000   1.0000
     0.0000   0.0000   0.0000   0.0000   0.0000   0.0000   0.0000   0.0000

          k = 0.4500 0.2598 0.0000 ( 48236 PWs)   bands (ev):

  -105.8890-104.5558 -67.4784 -67.1041 -65.5951 -64.9114 -64.4888 -64.1694
   -14.7456 -14.5114 -14.4938 -14.2391  -7.5505  -7.3604  -6.6616  -6.4634
    -5.7113  -5.5298  -4.8196  -4.7583  -4.5626  -4.4650  -4.2351  -4.1510
    -4.0743  -3.9310  -3.8123  -3.2822  -3.1257  -3.0293  -2.5110  -2.2019
    -1.1981  -1.0226   0.9197   1.1687   2.9858   3.1273   3.5686   3.7481

     occupation numbers 
     1.0000   1.0000   1.0000   1.0000   1.0000   1.0000   1.0000   1.0000
     1.0000   1.0000   1.0000   1.0000   1.0000   1.0000   1.0000   1.0000
     1.0000   1.0000   1.0000   1.0000   1.0000   1.0000   1.0000   1.0000
     1.0000   1.0000   1.0000   1.0000   1.0000   1.0000   1.0000   1.0000
     0.0000   0.0000   0.0000   0.0000   0.0000   0.0000   0.0000   0.0000

          k = 0.4250 0.2454 0.0000 ( 48212 PWs)   bands (ev):

  -105.8890-104.5558 -67.4784 -67.1041 -65.5951 -64.9114 -64.4888 -64.1694
   -14.8002 -14.5670 -14.4907 -14.2361  -7.4681  -7.2782  -6.6383  -6.4229
    -5.7118  -5.5369  -4.8860  -4.7631  -4.5364  -4.4571  -4.2265  -4.1363
    -4.0609  -3.8730  -3.7731  -3.2798  -3.1037  -3.0054  -2.5304  -2.2001
    -1.2213  -1.0248   0.9761   1.2193   3.0103   3.1545   3.5214   3.6955

     occupation numbers 
     1.0000   1.0000   1.0000   1.0000   1.0000   1.0000   1.0000   1.0000
     1.0000   1.0000   1.0000   1.0000   1.0000   1.0000   1.0000   1.0000
     1.0000   1.0000   1.0000   1.0000   1.0000   1.0000   1.0000   1.0000
     1.0000   1.0000   1.0000   1.0000   1.0000   1.0000   1.0000   1.0000
     0.0000   0.0000   0.0000   0.0000   0.0000   0.0000   0.0000   0.0000

          k = 0.4000 0.2309 0.0000 ( 48204 PWs)   bands (ev):

  -105.8890-104.5558 -67.4784 -67.1041 -65.5951 -64.9114 -64.4888 -64.1694
   -14.8664 -14.6348 -14.4935 -14.2392  -7.3570  -7.1674  -6.6069  -6.3699
    -5.7130  -5.5518  -4.9595  -4.7474  -4.5196  -4.4445  -4.2109  -4.1179
    -4.0271  -3.8066  -3.7273  -3.2766  -3.0756  -2.9746  -2.5583  -2.1970
    -1.2545  -1.0268   1.0557   1.2921   3.0368   3.1839   3.5010   3.6701

     occupation numbers 
     1.0000   1.0000   1.0000   1.0000   1.0000   1.0000   1.0000   1.0000
     1.0000   1.0000   1.0000   1.0000   1.0000   1.0000   1.0000   1.0000
     1.0000   1.0000   1.0000   1.0000   1.0000   1.0000   1.0000   1.0000
     1.0000   1.0000   1.0000   1.0000   1.0000   1.0000   1.0000   1.0000
     0.0000   0.0000   0.0000   0.0000   0.0000   0.0000   0.0000   0.0000

          k = 0.3750 0.2165 0.0000 ( 48212 PWs)   bands (ev):

  -105.8890-104.5558 -67.4784 -67.1041 -65.5951 -64.9114 -64.4888 -64.1693
   -14.9407 -14.7109 -14.5034 -14.2493  -7.2220  -7.0329  -6.5687  -6.3078
    -5.7156  -5.5729  -5.0288  -4.7117  -4.5108  -4.4219  -4.1903  -4.0945
    -3.9741  -3.7372  -3.6753  -3.2724  -3.0433  -2.9395  -2.5943  -2.1921
    -1.2973  -1.0281   1.1585   1.3876   3.0588   3.2082   3.5049   3.6682

     occupation numbers 
     1.0000   1.0000   1.0000   1.0000   1.0000   1.0000   1.0000   1.0000
     1.0000   1.0000   1.0000   1.0000   1.0000   1.0000   1.0000   1.0000
     1.0000   1.0000   1.0000   1.0000   1.0000   1.0000   1.0000   1.0000
     1.0000   1.0000   1.0000   1.0000   1.0000   1.0000   1.0000   1.0000
     0.0000   0.0000   0.0000   0.0000   0.0000   0.0000   0.0000   0.0000

          k = 0.3500 0.2021 0.0000 ( 48210 PWs)   bands (ev):

  -105.8890-104.5558 -67.4783 -67.1041 -65.5950 -64.9114 -64.4888 -64.1693
   -15.0203 -14.7924 -14.5200 -14.2665  -7.0704  -6.8826  -6.5240  -6.2407
    -5.7199  -5.5930  -5.0849  -4.6611  -4.5078  -4.3821  -4.1690  -4.0604
    -3.9077  -3.6752  -3.6095  -3.2673  -3.0091  -2.9017  -2.6373  -2.1849
    -1.3477  -1.0283   1.2839   1.5059   3.0713   3.2206   3.5186   3.6733

     occupation numbers 
     1.0000   1.0000   1.0000   1.0000   1.0000   1.0000   1.0000   1.0000
     1.0000   1.0000   1.0000   1.0000   1.0000   1.0000   1.0000   1.0000
     1.0000   1.0000   1.0000   1.0000   1.0000   1.0000   1.0000   1.0000
     1.0000   1.0000   1.0000   1.0000   1.0000   1.0000   1.0000   1.0000
     0.0000   0.0000   0.0000   0.0000   0.0000   0.0000   0.0000   0.0000

          k = 0.3250 0.1876 0.0000 ( 48206 PWs)   bands (ev):

  -105.8891-104.5558 -67.4783 -67.1041 -65.5950 -64.9114 -64.4889 -64.1693
   -15.1030 -14.8769 -14.5426 -14.2898  -6.9135  -6.7314  -6.4702  -6.1707
    -5.7240  -5.6016  -5.1175  -4.6063  -4.5079  -4.3187  -4.1488  -4.0118
    -3.8344  -3.6251  -3.5265  -3.2610  -2.9760  -2.8625  -2.6842  -2.1747
    -1.4028  -1.0270   1.4306   1.6460   3.0706   3.2160   3.5095   3.6486

     occupation numbers 
     1.0000   1.0000   1.0000   1.0000   1.0000   1.0000   1.0000   1.0000
     1.0000   1.0000   1.0000   1.0000   1.0000   1.0000   1.0000   1.0000
     1.0000   1.0000   1.0000   1.0000   1.0000   1.0000   1.0000   1.0000
     1.0000   1.0000   1.0000   1.0000   1.0000   1.0000   1.0000   1.0000
     0.0000   0.0000   0.0000   0.0000   0.0000   0.0000   0.0000   0.0000

          k = 0.3000 0.1732 0.0000 ( 48198 PWs)   bands (ev):

  -105.8891-104.5558 -67.4783 -67.1041 -65.5950 -64.9114 -64.4889 -64.1693
   -15.1868 -14.9625 -14.5699 -14.3180  -6.7694  -6.6081  -6.3969  -6.0924
    -5.7216  -5.5893  -5.1155  -4.5570  -4.5087  -4.2341  -4.1252  -3.9480
    -3.7610  -3.5788  -3.4343  -3.2525  -2.9488  -2.8229  -2.7283  -2.1610
    -1.4581  -1.0239   1.5964   1.8059   3.0519   3.1893   3.4448   3.5659

     occupation numbers 
     1.0000   1.0000   1.0000   1.0000   1.0000   1.0000   1.0000   1.0000
     1.0000   1.0000   1.0000   1.0000   1.0000   1.0000   1.0000   1.0000
     1.0000   1.0000   1.0000   1.0000   1.0000   1.0000   1.0000   1.0000
     1.0000   1.0000   1.0000   1.0000   1.0000   1.0000   1.0000   1.0000
     0.0000   0.0000   0.0000   0.0000   0.0000   0.0000   0.0000   0.0000

          k = 0.2750 0.1588 0.0000 ( 48166 PWs)   bands (ev):

  -105.8891-104.5558 -67.4783 -67.1041 -65.5950 -64.9113 -64.4889 -64.1692
   -15.2697 -15.0471 -14.6007 -14.3497  -6.6628  -6.5390  -6.3009  -5.9876
    -5.7097  -5.5436  -5.0695  -4.5232  -4.5009  -4.1598  -4.0746  -3.8676
    -3.6962  -3.5285  -3.3438  -3.2364  -2.9337  -2.7942  -2.7485  -2.1430
    -1.5079  -1.0185   1.7786   1.9828   3.0083   3.1344   3.3396   3.4499

     occupation numbers 
     1.0000   1.0000   1.0000   1.0000   1.0000   1.0000   1.0000   1.0000
     1.0000   1.0000   1.0000   1.0000   1.0000   1.0000   1.0000   1.0000
     1.0000   1.0000   1.0000   1.0000   1.0000   1.0000   1.0000   1.0000
     1.0000   1.0000   1.0000   1.0000   1.0000   1.0000   1.0000   1.0000
     0.0000   0.0000   0.0000   0.0000   0.0000   0.0000   0.0000   0.0000

          k = 0.2500 0.1443 0.0000 ( 48148 PWs)   bands (ev):

  -105.8891-104.5558 -67.4783 -67.1041 -65.5949 -64.9113 -64.4889 -64.1692
   -15.3503 -15.1291 -14.6335 -14.3837  -6.6141  -6.5100  -6.2098  -5.8440
    -5.6962  -5.4471  -4.9767  -4.5192  -4.4670  -4.1271  -3.9804  -3.7688
    -3.6464  -3.4715  -3.2836  -3.1887  -2.9323  -2.7947  -2.7167  -2.1202
    -1.5454  -1.0102   1.9736   2.1733   2.9336   3.0475   3.2300   3.3346

     occupation numbers 
     1.0000   1.0000   1.0000   1.0000   1.0000   1.0000   1.0000   1.0000
     1.0000   1.0000   1.0000   1.0000   1.0000   1.0000   1.0000   1.0000
     1.0000   1.0000   1.0000   1.0000   1.0000   1.0000   1.0000   1.0000
     1.0000   1.0000   1.0000   1.0000   1.0000   1.0000   1.0000   1.0000
     0.0000   0.0000   0.0000   0.0000   0.0000   0.0000   0.0000   0.0000

          k = 0.2250 0.1299 0.0000 ( 48160 PWs)   bands (ev):

  -105.8891-104.5558 -67.4783 -67.1041 -65.5949 -64.9113 -64.4889 -64.1692
   -15.4270 -15.2072 -14.6672 -14.4185  -6.6169  -6.5054  -6.1339  -5.7082
    -5.6543  -5.2982  -4.8421  -4.5204  -4.4289  -4.1072  -3.8830  -3.6634
    -3.6028  -3.4159  -3.2620  -3.1084  -2.9240  -2.7899  -2.6706  -2.0926
    -1.5625  -0.9985   2.1758   2.3722   2.8298   2.9337   3.1329   3.2328

     occupation numbers 
     1.0000   1.0000   1.0000   1.0000   1.0000   1.0000   1.0000   1.0000
     1.0000   1.0000   1.0000   1.0000   1.0000   1.0000   1.0000   1.0000
     1.0000   1.0000   1.0000   1.0000   1.0000   1.0000   1.0000   1.0000
     1.0000   1.0000   1.0000   1.0000   1.0000   1.0000   1.0000   1.0000
     0.0000   0.0000   0.0000   0.0000   0.0000   0.0000   0.0000   0.0000

          k = 0.2000 0.1155 0.0000 ( 48154 PWs)   bands (ev):

  -105.8891-104.5558 -67.4782 -67.1041 -65.5949 -64.9113 -64.4889 -64.1691
   -15.4986 -15.2801 -14.7006 -14.4529  -6.6480  -6.5210  -6.0672  -5.6972
    -5.4875  -5.1149  -4.6777  -4.5210  -4.3902  -4.0888  -3.7950  -3.6155
    -3.5126  -3.3761  -3.2450  -3.0411  -2.8713  -2.7759  -2.6229  -2.0609
    -1.5513  -0.9826   2.3727   2.5691   2.7144   2.8078   3.0486   3.1434

     occupation numbers 
     1.0000   1.0000   1.0000   1.0000   1.0000   1.0000   1.0000   1.0000
     1.0000   1.0000   1.0000   1.0000   1.0000   1.0000   1.0000   1.0000
     1.0000   1.0000   1.0000   1.0000   1.0000   1.0000   1.0000   1.0000
     1.0000   1.0000   1.0000   1.0000   1.0000   1.0000   1.0000   1.0000
     0.0000   0.0000   0.0000   0.0000   0.0000   0.0000   0.0000   0.0000

          k = 0.1750 0.1010 0.0000 ( 48150 PWs)   bands (ev):

  -105.8891-104.5558 -67.4782 -67.1041 -65.5949 -64.9113 -64.4889 -64.1691
   -15.5642 -15.3467 -14.7325 -14.4859  -6.6910  -6.5500  -6.0053  -5.6980
    -5.3200  -4.9188  -4.5287  -4.4938  -4.3491  -4.0696  -3.7168  -3.6052
    -3.4246  -3.3408  -3.2191  -2.9902  -2.7951  -2.7294  -2.5749  -2.0262
    -1.5069  -0.9617   2.4786   2.6347   2.6772   2.7925   2.9763   3.0662

     occupation numbers 
     1.0000   1.0000   1.0000   1.0000   1.0000   1.0000   1.0000   1.0000
     1.0000   1.0000   1.0000   1.0000   1.0000   1.0000   1.0000   1.0000
     1.0000   1.0000   1.0000   1.0000   1.0000   1.0000   1.0000   1.0000
     1.0000   1.0000   1.0000   1.0000   1.0000   1.0000   1.0000   1.0000
     0.0000   0.0000   0.0000   0.0000   0.0000   0.0000   0.0000   0.0000

          k = 0.1500 0.0866 0.0000 ( 48150 PWs)   bands (ev):

  -105.8891-104.5558 -67.4782 -67.1041 -65.5948 -64.9113 -64.4889 -64.1691
   -15.6227 -15.4061 -14.7621 -14.5164  -6.7370  -6.5853  -5.9475  -5.6998
    -5.1663  -4.7297  -4.5209  -4.3567  -4.2840  -4.0485  -3.6614  -3.5919
    -3.3968  -3.2784  -3.1732  -2.9382  -2.7705  -2.6066  -2.5237  -1.9875
    -1.4311  -0.9346   2.3798   2.5063   2.8046   2.8901   2.9493   3.0328

     occupation numbers 
     1.0000   1.0000   1.0000   1.0000   1.0000   1.0000   1.0000   1.0000
     1.0000   1.0000   1.0000   1.0000   1.0000   1.0000   1.0000   1.0000
     1.0000   1.0000   1.0000   1.0000   1.0000   1.0000   1.0000   1.0000
     1.0000   1.0000   1.0000   1.0000   1.0000   1.0000   1.0000   1.0000
     0.0000   0.0000   0.0000   0.0000   0.0000   0.0000   0.0000   0.0000

          k = 0.1250 0.0722 0.0000 ( 48142 PWs)   bands (ev):

  -105.8891-104.5558 -67.4782 -67.1041 -65.5948 -64.9113 -64.4889 -64.1691
   -15.6734 -15.4575 -14.7884 -14.5436  -6.7810  -6.6214  -5.8952  -5.7006
    -5.0295  -4.5658  -4.5124  -4.3013  -4.1689  -4.0254  -3.6668  -3.5302
    -3.3808  -3.2374  -3.0940  -2.8809  -2.7579  -2.4914  -2.4457  -1.9408
    -1.3346  -0.8993   2.2421   2.3650   2.8196   2.8952   2.9730   3.1115

     occupation numbers 
     1.0000   1.0000   1.0000   1.0000   1.0000   1.0000   1.0000   1.0000
     1.0000   1.0000   1.0000   1.0000   1.0000   1.0000   1.0000   1.0000
     1.0000   1.0000   1.0000   1.0000   1.0000   1.0000   1.0000   1.0000
     1.0000   1.0000   1.0000   1.0000   1.0000   1.0000   1.0000   1.0000
     0.0000   0.0000   0.0000   0.0000   0.0000   0.0000   0.0000   0.0000

          k = 0.1000 0.0577 0.0000 ( 48133 PWs)   bands (ev):

  -105.8891-104.5558 -67.4782 -67.1041 -65.5948 -64.9112 -64.4889 -64.1691
   -15.7156 -15.5004 -14.8109 -14.5668  -6.8198  -6.6546  -5.8510  -5.6989
    -4.9128  -4.5065  -4.4271  -4.2682  -4.0870  -4.0014  -3.7028  -3.4447
    -3.3548  -3.2135  -3.0080  -2.8202  -2.7390  -2.4230  -2.3320  -1.8798
    -1.2349  -0.8526   2.1029   2.2264   2.7726   2.8494   2.9751   3.0962

     occupation numbers 
     1.0000   1.0000   1.0000   1.0000   1.0000   1.0000   1.0000   1.0000
     1.0000   1.0000   1.0000   1.0000   1.0000   1.0000   1.0000   1.0000
     1.0000   1.0000   1.0000   1.0000   1.0000   1.0000   1.0000   1.0000
     1.0000   1.0000   1.0000   1.0000   1.0000   1.0000   1.0000   1.0000
     0.0000   0.0000   0.0000   0.0000   0.0000   0.0000   0.0000   0.0000

          k = 0.0750 0.0433 0.0000 ( 48113 PWs)   bands (ev):

  -105.8891-104.5558 -67.4782 -67.1041 -65.5948 -64.9112 -64.4889 -64.1690
   -15.7490 -15.5343 -14.8289 -14.5854  -6.8515  -6.6825  -5.8176  -5.6935
    -4.8209  -4.4863  -4.3293  -4.2416  -4.0514  -3.9799  -3.7497  -3.3613
    -3.3229  -3.1903  -2.9423  -2.7870  -2.6753  -2.3560  -2.2488  -1.8028
    -1.1512  -0.7924   1.9739   2.0991   2.7291   2.8062   2.8364   2.9475

     occupation numbers 
     1.0000   1.0000   1.0000   1.0000   1.0000   1.0000   1.0000   1.0000
     1.0000   1.0000   1.0000   1.0000   1.0000   1.0000   1.0000   1.0000
     1.0000   1.0000   1.0000   1.0000   1.0000   1.0000   1.0000   1.0000
     1.0000   1.0000   1.0000   1.0000   1.0000   1.0000   1.0000   1.0000
     0.0000   0.0000   0.0000   0.0000   0.0000   0.0000   0.0000   0.0000

          k = 0.0500 0.0289 0.0000 ( 48107 PWs)   bands (ev):

  -105.8891-104.5558 -67.4782 -67.1041 -65.5948 -64.9112 -64.4889 -64.1690
   -15.7731 -15.5587 -14.8421 -14.5990  -6.8750  -6.7033  -5.7965  -5.6852
    -4.7584  -4.4602  -4.2589  -4.2207  -4.0445  -3.9673  -3.7963  -3.3025
    -3.2939  -3.1609  -2.9019  -2.7837  -2.5765  -2.2909  -2.2073  -1.7227
    -1.0951  -0.7261   1.8673   1.9943   2.6559   2.7166   2.7612   2.7939

     occupation numbers 
     1.0000   1.0000   1.0000   1.0000   1.0000   1.0000   1.0000   1.0000
     1.0000   1.0000   1.0000   1.0000   1.0000   1.0000   1.0000   1.0000
     1.0000   1.0000   1.0000   1.0000   1.0000   1.0000   1.0000   1.0000
     1.0000   1.0000   1.0000   1.0000   1.0000   1.0000   1.0000   1.0000
     0.0000   0.0000   0.0000   0.0000   0.0000   0.0000   0.0000   0.0000

          k = 0.0250 0.0144 0.0000 ( 48115 PWs)   bands (ev):

  -105.8891-104.5558 -67.4782 -67.1041 -65.5948 -64.9112 -64.4889 -64.1690
   -15.7877 -15.5735 -14.8502 -14.6073  -6.8893  -6.7162  -5.7858  -5.6773
    -4.7245  -4.4359  -4.2116  -4.2061  -4.0482  -3.9691  -3.8285  -3.2771
    -3.2711  -3.1322  -2.8804  -2.7870  -2.4916  -2.2403  -2.1983  -1.6624
    -1.0652  -0.6730   1.7964   1.9245   2.5502   2.6549   2.6909   2.7615

     occupation numbers 
     1.0000   1.0000   1.0000   1.0000   1.0000   1.0000   1.0000   1.0000
     1.0000   1.0000   1.0000   1.0000   1.0000   1.0000   1.0000   1.0000
     1.0000   1.0000   1.0000   1.0000   1.0000   1.0000   1.0000   1.0000
     1.0000   1.0000   1.0000   1.0000   1.0000   1.0000   1.0000   1.0660
     0.0000   0.0000   0.0000   0.0000   0.0000   0.0000   0.0000   0.0000

          k = 0.0000 0.0000 0.0000 ( 48107 PWs)   bands (ev):

  -105.8891-104.5558 -67.4782 -67.1041 -65.5948 -64.9112 -64.4889 -64.1690
   -15.7926 -15.5784 -14.8529 -14.6100  -6.8942  -6.7206  -5.7826  -5.6741
    -4.7141  -4.4260  -4.2021  -4.1916  -4.0509  -3.9747  -3.8388  -3.2707
    -3.2627  -3.1203  -2.8737  -2.7889  -2.4571  -2.2173  -2.2038  -1.6401
    -1.0561  -0.6526   1.7714   1.9000   2.5107   2.6128   2.6839   2.7545

     occupation numbers 
     1.0000   1.0000   1.0000   1.0000   1.0000   1.0000   1.0000   1.0000
     1.0000   1.0000   1.0000   1.0000   1.0000   1.0000   1.0000   1.0000
     1.0000   1.0000   1.0000   1.0000   1.0000   1.0000   1.0000   1.0000
     1.0000   1.0000   1.0000   1.0000   1.0000   1.0000   1.0000   0.4401
     0.0000   0.0000   0.0000   0.0000   0.0000   0.0000   0.0000   0.0000

     the Fermi energy is    -1.6390 ev
     (compare with:    -1.6373 eV, computed in scf)

     Writing all to output data dir ./tmp/nso.save/
 
     init_run     :      0.82s CPU      0.90s WALL (       1 calls)
     electrons    :    105.01s CPU    105.46s WALL (       1 calls)

     Called by init_run:
     wfcinit      :      0.00s CPU      0.00s WALL (       1 calls)
     wfcinit:atom :      0.11s CPU      0.11s WALL (      61 calls)
     wfcinit:wfcr :      4.61s CPU      4.63s WALL (      61 calls)
     potinit      :      0.09s CPU      0.10s WALL (       1 calls)
     hinit0       :      0.64s CPU      0.70s WALL (       1 calls)

     Called by electrons:
     c_bands      :    105.01s CPU    105.45s WALL (       1 calls)
     v_of_rho     :      0.06s CPU      0.07s WALL (       1 calls)
     v_h          :      0.00s CPU      0.00s WALL (       1 calls)
     v_xc         :      0.06s CPU      0.06s WALL (       1 calls)

     Called by c_bands:
     init_us_2    :      0.08s CPU      0.10s WALL (      61 calls)
     init_us_2:cp :      0.08s CPU      0.10s WALL (      61 calls)
     cegterg      :     97.08s CPU     97.39s WALL (     140 calls)

     Called by sum_band:

     Called by *egterg:
     cdiaghg      :      4.57s CPU      4.58s WALL (    2393 calls)
     cegterg:over :      7.44s CPU      7.45s WALL (    2332 calls)
     cegterg:upda :      5.30s CPU      5.31s WALL (    2332 calls)
     cegterg:last :      6.22s CPU      6.23s WALL (    1057 calls)
     h_psi        :     74.43s CPU     74.74s WALL (    2533 calls)
     g_psi        :      0.69s CPU      0.69s WALL (    2332 calls)

     Called by h_psi:
     h_psi:calbec :      4.39s CPU      4.41s WALL (    2533 calls)
     vloc_psi     :     64.24s CPU     64.51s WALL (    2533 calls)
     add_vuspsi   :      4.87s CPU      4.88s WALL (    2533 calls)

     General routines
     calbec       :      4.38s CPU      4.40s WALL (    2533 calls)
     fft          :      0.05s CPU      0.10s WALL (      27 calls)
     ffts         :      0.00s CPU      0.00s WALL (       4 calls)
     fftw         :     49.90s CPU     50.10s WALL (  169828 calls)
     interpolate  :      0.00s CPU      0.01s WALL (       4 calls)
     davcio       :      0.18s CPU      0.32s WALL (     122 calls)
 
     Parallel routines
 
     PWSCF        :   1m47.85s CPU   1m50.78s WALL

 
   This run was terminated on:  15:31:17  27Jun2023            

=------------------------------------------------------------------------------=
   JOB DONE.
=------------------------------------------------------------------------------=
