
     Program PROJWFC v.7.1 starts on 26Jun2023 at 23:36:51 

     This program is part of the open-source Quantum ESPRESSO suite
     for quantum simulation of materials; please cite
         "P. Giannozzi et al., J. Phys.:Condens. Matter 21 395502 (2009);
         "P. Giannozzi et al., J. Phys.:Condens. Matter 29 465901 (2017);
         "P. Giannozzi et al., J. Chem. Phys. 152 154105 (2020);
          URL http://www.quantum-espresso.org", 
     in publications or presentations arising from this work. More details at
     http://www.quantum-espresso.org/quote

     Parallel version (MPI & OpenMP), running on      20 processor cores
     Number of MPI processes:                20
     Threads/MPI process:                     1

     MPI processes distributed on     1 nodes
     R & G space division:  proc/nbgrp/npool/nimage =      20
     187410 MiB available memory on the printing compute node when the environment starts
 

     Reading xml data from directory:

     ./tmp/nso.save/

     IMPORTANT: XC functional enforced from input :
     Exchange-correlation= PBE
                           (   1   4   3   4   0   0   0)
     Any further DFT definition will be discarded
     Please, verify this is what you really want

 
     Parallelization info
     --------------------
     sticks:   dense  smooth     PW     G-vecs:    dense   smooth      PW
     Min          93      89     21                20483    19267    2377
     Max          94      90     22                20500    19300    2420
     Sum        1879    1789    439               409943   385631   48107
 
     Using Slab Decomposition
 

     Gaussian broadening (read from input): ngauss,degauss=   0    0.003000


     Calling projwave .... 
     Subspace diagonalization in iterative solution of the eigenvalue problem:
     one sub-group per band group will be used
     ELPA distributed-memory algorithm (size of sub-group:  4*  4 procs)

     linear algebra parallelized on  16 procs
 
  Problem Sizes 
  natomwfc =           36
  nx       =            9
  nbnd     =           40
  nkstot   =            1
  npwx     =         2400
  nkb      =          102
 

     Atomic states used for projection
     (read from pseudopotential files):

     state #   1: atom   1 (Ni ), wfc  1 (l=0 j=0.5 m_j=-0.5)
     state #   2: atom   1 (Ni ), wfc  1 (l=0 j=0.5 m_j= 0.5)
     state #   3: atom   1 (Ni ), wfc  2 (l=1 j=1.5 m_j=-1.5)
     state #   4: atom   1 (Ni ), wfc  2 (l=1 j=1.5 m_j=-0.5)
     state #   5: atom   1 (Ni ), wfc  2 (l=1 j=1.5 m_j= 0.5)
     state #   6: atom   1 (Ni ), wfc  2 (l=1 j=1.5 m_j= 1.5)
     state #   7: atom   1 (Ni ), wfc  3 (l=1 j=0.5 m_j=-0.5)
     state #   8: atom   1 (Ni ), wfc  3 (l=1 j=0.5 m_j= 0.5)
     state #   9: atom   1 (Ni ), wfc  4 (l=2 j=2.5 m_j=-2.5)
     state #  10: atom   1 (Ni ), wfc  4 (l=2 j=2.5 m_j=-1.5)
     state #  11: atom   1 (Ni ), wfc  4 (l=2 j=2.5 m_j=-0.5)
     state #  12: atom   1 (Ni ), wfc  4 (l=2 j=2.5 m_j= 0.5)
     state #  13: atom   1 (Ni ), wfc  4 (l=2 j=2.5 m_j= 1.5)
     state #  14: atom   1 (Ni ), wfc  4 (l=2 j=2.5 m_j= 2.5)
     state #  15: atom   1 (Ni ), wfc  5 (l=2 j=1.5 m_j=-1.5)
     state #  16: atom   1 (Ni ), wfc  5 (l=2 j=1.5 m_j=-0.5)
     state #  17: atom   1 (Ni ), wfc  5 (l=2 j=1.5 m_j= 0.5)
     state #  18: atom   1 (Ni ), wfc  5 (l=2 j=1.5 m_j= 1.5)
     state #  19: atom   1 (Ni ), wfc  6 (l=0 j=0.5 m_j=-0.5)
     state #  20: atom   1 (Ni ), wfc  6 (l=0 j=0.5 m_j= 0.5)
     state #  21: atom   2 (I  ), wfc  1 (l=0 j=0.5 m_j=-0.5)
     state #  22: atom   2 (I  ), wfc  1 (l=0 j=0.5 m_j= 0.5)
     state #  23: atom   2 (I  ), wfc  2 (l=1 j=1.5 m_j=-1.5)
     state #  24: atom   2 (I  ), wfc  2 (l=1 j=1.5 m_j=-0.5)
     state #  25: atom   2 (I  ), wfc  2 (l=1 j=1.5 m_j= 0.5)
     state #  26: atom   2 (I  ), wfc  2 (l=1 j=1.5 m_j= 1.5)
     state #  27: atom   2 (I  ), wfc  3 (l=1 j=0.5 m_j=-0.5)
     state #  28: atom   2 (I  ), wfc  3 (l=1 j=0.5 m_j= 0.5)
     state #  29: atom   3 (I  ), wfc  1 (l=0 j=0.5 m_j=-0.5)
     state #  30: atom   3 (I  ), wfc  1 (l=0 j=0.5 m_j= 0.5)
     state #  31: atom   3 (I  ), wfc  2 (l=1 j=1.5 m_j=-1.5)
     state #  32: atom   3 (I  ), wfc  2 (l=1 j=1.5 m_j=-0.5)
     state #  33: atom   3 (I  ), wfc  2 (l=1 j=1.5 m_j= 0.5)
     state #  34: atom   3 (I  ), wfc  2 (l=1 j=1.5 m_j= 1.5)
     state #  35: atom   3 (I  ), wfc  3 (l=1 j=0.5 m_j=-0.5)
     state #  36: atom   3 (I  ), wfc  3 (l=1 j=0.5 m_j= 0.5)

 k =   0.0000000000  0.0000000000  0.0000000000
==== e(   1) =  -105.88906 eV ==== 
     psi = 0.996*[#   2]+0.001*[#  25]+0.001*[#  33]
    |psi|^2 = 1.000
==== e(   2) =  -104.55584 eV ==== 
     psi = 0.996*[#   1]+0.001*[#  24]+0.001*[#  32]
    |psi|^2 = 1.000
==== e(   3) =   -67.47817 eV ==== 
     psi = 0.947*[#   7]+0.052*[#   4]
    |psi|^2 = 1.000
==== e(   4) =   -67.10411 eV ==== 
     psi = 0.886*[#   8]+0.114*[#   5]
    |psi|^2 = 1.000
==== e(   5) =   -65.59478 eV ==== 
     psi = 1.000*[#   6]
    |psi|^2 = 1.000
==== e(   6) =   -64.91122 eV ==== 
     psi = 0.886*[#   5]+0.114*[#   8]
    |psi|^2 = 1.000
==== e(   7) =   -64.48888 eV ==== 
     psi = 0.947*[#   4]+0.052*[#   7]
    |psi|^2 = 1.000
==== e(   8) =   -64.16902 eV ==== 
     psi = 1.000*[#   3]
    |psi|^2 = 1.000
==== e(   9) =   -15.79258 eV ==== 
     psi = 0.364*[#  22]+0.364*[#  30]+0.260*[#  20]+0.003*[#  25]+0.003*[#  33]
          +0.001*[#  28]+0.001*[#  36]+0.001*[#   2]
    |psi|^2 = 1.000
==== e(  10) =   -15.57842 eV ==== 
     psi = 0.361*[#  21]+0.361*[#  29]+0.265*[#  19]+0.003*[#  24]+0.003*[#  32]
          +0.002*[#  27]+0.002*[#  35]+0.001*[#   1]
    |psi|^2 = 1.000
==== e(  11) =   -14.85287 eV ==== 
     psi = 0.495*[#  22]+0.495*[#  30]+0.002*[#  25]+0.002*[#  33]
    |psi|^2 = 0.997
==== e(  12) =   -14.61004 eV ==== 
     psi = 0.495*[#  21]+0.495*[#  29]+0.002*[#  24]+0.002*[#  32]
    |psi|^2 = 0.997
==== e(  13) =    -6.89415 eV ==== 
     psi = 0.207*[#  25]+0.207*[#  33]+0.172*[#  28]+0.172*[#  36]+0.071*[#  20]
          +0.061*[#  12]+0.035*[#  22]+0.035*[#  30]+0.031*[#  17]+0.002*[#   2]
          +0.001*[#   9]
    |psi|^2 = 0.995
==== e(  14) =    -6.72055 eV ==== 
     psi = 0.206*[#  27]+0.206*[#  35]+0.174*[#  24]+0.174*[#  32]+0.070*[#  19]
          +0.069*[#  11]+0.036*[#  21]+0.036*[#  29]+0.015*[#  14]+0.007*[#  16]
          +0.002*[#   1]
    |psi|^2 = 0.994
==== e(  15) =    -5.78261 eV ==== 
     psi = 0.324*[#  14]+0.280*[#  16]+0.100*[#  24]+0.100*[#  32]+0.089*[#  11]
          +0.047*[#  27]+0.047*[#  35]+0.005*[#  19]+0.002*[#  21]+0.002*[#  29]
          
    |psi|^2 = 0.995
==== e(  16) =    -5.67412 eV ==== 
     psi = 0.357*[#  15]+0.275*[#  13]+0.106*[#  26]+0.106*[#  34]+0.078*[#  18]
          +0.073*[#  10]
    |psi|^2 = 0.995
==== e(  17) =    -4.71412 eV ==== 
     psi = 0.327*[#   9]+0.159*[#  28]+0.159*[#  36]+0.132*[#  17]+0.103*[#  25]
          +0.103*[#  33]+0.005*[#  12]
    |psi|^2 = 0.989
==== e(  18) =    -4.42601 eV ==== 
     psi = 0.493*[#  18]+0.188*[#  23]+0.188*[#  31]+0.071*[#  15]+0.030*[#  10]
          +0.018*[#  13]
    |psi|^2 = 0.988
==== e(  19) =    -4.20206 eV ==== 
     psi = 0.389*[#  14]+0.373*[#  16]+0.195*[#  11]+0.009*[#  24]+0.009*[#  32]
          +0.007*[#  27]+0.007*[#  35]
    |psi|^2 = 0.989
==== e(  20) =    -4.19160 eV ==== 
     psi = 0.555*[#  13]+0.270*[#  15]+0.098*[#  10]+0.029*[#  18]+0.015*[#  23]
          +0.015*[#  31]+0.004*[#  26]+0.004*[#  34]
    |psi|^2 = 0.989
==== e(  21) =    -4.05089 eV ==== 
     psi = 0.386*[#  28]+0.386*[#  36]+0.109*[#  25]+0.109*[#  33]+0.002*[#  22]
          +0.002*[#  30]
    |psi|^2 = 0.994
==== e(  22) =    -3.97474 eV ==== 
     psi = 0.452*[#  27]+0.452*[#  35]+0.042*[#  24]+0.042*[#  32]+0.001*[#  21]
          +0.001*[#  29]
    |psi|^2 = 0.992
==== e(  23) =    -3.83880 eV ==== 
     psi = 0.424*[#  17]+0.421*[#  12]+0.036*[#   9]+0.034*[#  25]+0.034*[#  33]
          +0.025*[#  20]+0.006*[#  22]+0.006*[#  30]+0.003*[#  28]+0.003*[#  36]
          
    |psi|^2 = 0.992
==== e(  24) =    -3.27073 eV ==== 
     psi = 0.411*[#  12]+0.286*[#   9]+0.275*[#  17]+0.004*[#  25]+0.004*[#  33]
          +0.001*[#  20]+0.001*[#  28]+0.001*[#  36]
    |psi|^2 = 0.985
==== e(  25) =    -3.26272 eV ==== 
     psi = 0.595*[#  10]+0.184*[#  18]+0.132*[#  15]+0.044*[#  13]+0.014*[#  23]
          +0.014*[#  31]
    |psi|^2 = 0.986
==== e(  26) =    -3.12030 eV ==== 
     psi = 0.620*[#  11]+0.283*[#  16]+0.024*[#  19]+0.013*[#  27]+0.013*[#  35]
          +0.011*[#  24]+0.011*[#  32]+0.006*[#  21]+0.006*[#  29]
    |psi|^2 = 0.987
==== e(  27) =    -2.87368 eV ==== 
     psi = 0.450*[#  24]+0.450*[#  32]+0.042*[#  27]+0.042*[#  35]+0.001*[#  21]
          +0.001*[#  29]
    |psi|^2 = 0.987
==== e(  28) =    -2.78894 eV ==== 
     psi = 0.383*[#  25]+0.383*[#  33]+0.107*[#  28]+0.107*[#  36]
    |psi|^2 = 0.984
==== e(  29) =    -2.45712 eV ==== 
     psi = 0.490*[#  26]+0.490*[#  34]
    |psi|^2 = 0.981
==== e(  30) =    -2.21726 eV ==== 
     psi = 0.488*[#  23]+0.488*[#  31]
    |psi|^2 = 0.978
==== e(  31) =    -2.20378 eV ==== 
     psi = 0.264*[#  14]+0.201*[#  27]+0.201*[#  35]+0.136*[#  24]+0.136*[#  32]
          +0.043*[#  16]+0.011*[#  11]+0.003*[#  19]
    |psi|^2 = 0.999
==== e(  32) =    -1.64009 eV ==== 
     psi = 0.387*[#  26]+0.387*[#  34]+0.132*[#  15]+0.044*[#  13]+0.042*[#  10]
          +0.007*[#  18]
    |psi|^2 = 0.998
==== e(  33) =    -1.05612 eV ==== 
     psi = 0.338*[#   9]+0.141*[#  28]+0.141*[#  36]+0.123*[#  17]+0.086*[#  12]
          +0.082*[#  25]+0.082*[#  33]+0.002*[#  20]
    |psi|^2 = 0.995
==== e(  34) =    -0.65264 eV ==== 
     psi = 0.281*[#  23]+0.281*[#  31]+0.199*[#  18]+0.148*[#  10]+0.056*[#  13]
          +0.030*[#  15]
    |psi|^2 = 0.996
==== e(  35) =     1.77136 eV ==== 
     psi = 0.397*[#  20]+0.057*[#  22]+0.057*[#  30]+0.040*[#  25]+0.040*[#  33]
          +0.013*[#  28]+0.013*[#  36]
    |psi|^2 = 0.620
==== e(  36) =     1.89996 eV ==== 
     psi = 0.371*[#  19]+0.055*[#  21]+0.055*[#  29]+0.038*[#  24]+0.038*[#  32]
          +0.013*[#  27]+0.013*[#  35]+0.001*[#  11]
    |psi|^2 = 0.586
==== e(  37) =     2.51074 eV ==== 
     psi = 0.001*[#  22]+0.001*[#  30]
    |psi|^2 = 0.004
==== e(  38) =     2.61283 eV ==== 
     psi = 0.001*[#  21]+0.001*[#  29]
    |psi|^2 = 0.005
==== e(  39) =     2.68387 eV ==== 
 
    |psi|^2 = 0.000
==== e(  40) =     2.75448 eV ==== 
 
    |psi|^2 = 0.001

Lowdin Charges: 

     Atom #   1: total charge =  17.6234, s =  2.7235, 
     Atom #   1: total charge =  17.6234, p =  5.9999, 
     Atom #   1: total charge =  17.6234, d =  8.9000, 
     Atom #   2: total charge =   7.0834, s =  1.8087, 
     Atom #   2: total charge =   7.0834, p =  5.2747, 
     Atom #   2: total charge =   7.0834, d =  0.0000, 
     Atom #   3: total charge =   7.0834, s =  1.8087, 
     Atom #   3: total charge =   7.0834, p =  5.2747, 
     Atom #   3: total charge =   7.0834, d =  0.0000, 
     Spilling Parameter:   0.0066
 
     PROJWFC      :      1.10s CPU      1.18s WALL

 
   This run was terminated on:  23:36:52  26Jun2023            

=------------------------------------------------------------------------------=
   JOB DONE.
=------------------------------------------------------------------------------=
