
     Program PROJWFC v.7.1 starts on 27Jun2023 at 15:31:20 

     This program is part of the open-source Quantum ESPRESSO suite
     for quantum simulation of materials; please cite
         "P. Giannozzi et al., J. Phys.:Condens. Matter 21 395502 (2009);
         "P. Giannozzi et al., J. Phys.:Condens. Matter 29 465901 (2017);
         "P. Giannozzi et al., J. Chem. Phys. 152 154105 (2020);
          URL http://www.quantum-espresso.org", 
     in publications or presentations arising from this work. More details at
     http://www.quantum-espresso.org/quote

     Parallel version (MPI & OpenMP), running on      20 processor cores
     Number of MPI processes:                20
     Threads/MPI process:                     1

     MPI processes distributed on     1 nodes
     R & G space division:  proc/nbgrp/npool/nimage =      20
     240451 MiB available memory on the printing compute node when the environment starts
 

     Reading xml data from directory:

     ./tmp/nso.save/

     IMPORTANT: XC functional enforced from input :
     Exchange-correlation= PBE
                           (   1   4   3   4   0   0   0)
     Any further DFT definition will be discarded
     Please, verify this is what you really want

 
     Parallelization info
     --------------------
     sticks:   dense  smooth     PW     G-vecs:    dense   smooth      PW
     Min          93      89     24                20481    19267    2790
     Max          94      90     25                20502    19300    2817
     Sum        1879    1789    499               409943   385631   56191
 
     Using Slab Decomposition
 

     Gaussian broadening (read from input): ngauss,degauss=   0    0.003000


     Calling projwave .... 
     Subspace diagonalization in iterative solution of the eigenvalue problem:
     one sub-group per band group will be used
     ELPA distributed-memory algorithm (size of sub-group:  4*  4 procs)

     linear algebra parallelized on  16 procs
 
  Problem Sizes 
  natomwfc =           36
  nx       =            9
  nbnd     =           40
  nkstot   =           61
  npwx     =         2398
  nkb      =          102
 

     Atomic states used for projection
     (read from pseudopotential files):

     state #   1: atom   1 (Ni ), wfc  1 (l=0 j=0.5 m_j=-0.5)
     state #   2: atom   1 (Ni ), wfc  1 (l=0 j=0.5 m_j= 0.5)
     state #   3: atom   1 (Ni ), wfc  2 (l=1 j=1.5 m_j=-1.5)
     state #   4: atom   1 (Ni ), wfc  2 (l=1 j=1.5 m_j=-0.5)
     state #   5: atom   1 (Ni ), wfc  2 (l=1 j=1.5 m_j= 0.5)
     state #   6: atom   1 (Ni ), wfc  2 (l=1 j=1.5 m_j= 1.5)
     state #   7: atom   1 (Ni ), wfc  3 (l=1 j=0.5 m_j=-0.5)
     state #   8: atom   1 (Ni ), wfc  3 (l=1 j=0.5 m_j= 0.5)
     state #   9: atom   1 (Ni ), wfc  4 (l=2 j=2.5 m_j=-2.5)
     state #  10: atom   1 (Ni ), wfc  4 (l=2 j=2.5 m_j=-1.5)
     state #  11: atom   1 (Ni ), wfc  4 (l=2 j=2.5 m_j=-0.5)
     state #  12: atom   1 (Ni ), wfc  4 (l=2 j=2.5 m_j= 0.5)
     state #  13: atom   1 (Ni ), wfc  4 (l=2 j=2.5 m_j= 1.5)
     state #  14: atom   1 (Ni ), wfc  4 (l=2 j=2.5 m_j= 2.5)
     state #  15: atom   1 (Ni ), wfc  5 (l=2 j=1.5 m_j=-1.5)
     state #  16: atom   1 (Ni ), wfc  5 (l=2 j=1.5 m_j=-0.5)
     state #  17: atom   1 (Ni ), wfc  5 (l=2 j=1.5 m_j= 0.5)
     state #  18: atom   1 (Ni ), wfc  5 (l=2 j=1.5 m_j= 1.5)
     state #  19: atom   1 (Ni ), wfc  6 (l=0 j=0.5 m_j=-0.5)
     state #  20: atom   1 (Ni ), wfc  6 (l=0 j=0.5 m_j= 0.5)
     state #  21: atom   2 (I  ), wfc  1 (l=0 j=0.5 m_j=-0.5)
     state #  22: atom   2 (I  ), wfc  1 (l=0 j=0.5 m_j= 0.5)
     state #  23: atom   2 (I  ), wfc  2 (l=1 j=1.5 m_j=-1.5)
     state #  24: atom   2 (I  ), wfc  2 (l=1 j=1.5 m_j=-0.5)
     state #  25: atom   2 (I  ), wfc  2 (l=1 j=1.5 m_j= 0.5)
     state #  26: atom   2 (I  ), wfc  2 (l=1 j=1.5 m_j= 1.5)
     state #  27: atom   2 (I  ), wfc  3 (l=1 j=0.5 m_j=-0.5)
     state #  28: atom   2 (I  ), wfc  3 (l=1 j=0.5 m_j= 0.5)
     state #  29: atom   3 (I  ), wfc  1 (l=0 j=0.5 m_j=-0.5)
     state #  30: atom   3 (I  ), wfc  1 (l=0 j=0.5 m_j= 0.5)
     state #  31: atom   3 (I  ), wfc  2 (l=1 j=1.5 m_j=-1.5)
     state #  32: atom   3 (I  ), wfc  2 (l=1 j=1.5 m_j=-0.5)
     state #  33: atom   3 (I  ), wfc  2 (l=1 j=1.5 m_j= 0.5)
     state #  34: atom   3 (I  ), wfc  2 (l=1 j=1.5 m_j= 1.5)
     state #  35: atom   3 (I  ), wfc  3 (l=1 j=0.5 m_j=-0.5)
     state #  36: atom   3 (I  ), wfc  3 (l=1 j=0.5 m_j= 0.5)

 k =   0.0000000000  0.0000000000  0.0000000000
==== e(   1) =  -105.88906 eV ==== 
     psi = 0.996*[#   2]+0.001*[#  25]+0.001*[#  33]
    |psi|^2 = 1.000
==== e(   2) =  -104.55584 eV ==== 
     psi = 0.996*[#   1]+0.001*[#  24]+0.001*[#  32]
    |psi|^2 = 1.000
==== e(   3) =   -67.47817 eV ==== 
     psi = 0.947*[#   7]+0.052*[#   4]
    |psi|^2 = 1.000
==== e(   4) =   -67.10411 eV ==== 
     psi = 0.886*[#   8]+0.114*[#   5]
    |psi|^2 = 1.000
==== e(   5) =   -65.59478 eV ==== 
     psi = 1.000*[#   6]
    |psi|^2 = 1.000
==== e(   6) =   -64.91122 eV ==== 
     psi = 0.886*[#   5]+0.114*[#   8]
    |psi|^2 = 1.000
==== e(   7) =   -64.48888 eV ==== 
     psi = 0.947*[#   4]+0.052*[#   7]
    |psi|^2 = 1.000
==== e(   8) =   -64.16902 eV ==== 
     psi = 1.000*[#   3]
    |psi|^2 = 1.000
==== e(   9) =   -15.79258 eV ==== 
     psi = 0.364*[#  22]+0.364*[#  30]+0.260*[#  20]+0.003*[#  25]+0.003*[#  33]
          +0.001*[#  28]+0.001*[#  36]+0.001*[#   2]
    |psi|^2 = 1.000
==== e(  10) =   -15.57842 eV ==== 
     psi = 0.361*[#  21]+0.361*[#  29]+0.265*[#  19]+0.003*[#  24]+0.003*[#  32]
          +0.002*[#  27]+0.002*[#  35]+0.001*[#   1]
    |psi|^2 = 1.000
==== e(  11) =   -14.85287 eV ==== 
     psi = 0.495*[#  22]+0.495*[#  30]+0.002*[#  25]+0.002*[#  33]
    |psi|^2 = 0.997
==== e(  12) =   -14.61004 eV ==== 
     psi = 0.495*[#  21]+0.495*[#  29]+0.002*[#  24]+0.002*[#  32]
    |psi|^2 = 0.997
==== e(  13) =    -6.89415 eV ==== 
     psi = 0.207*[#  25]+0.207*[#  33]+0.172*[#  28]+0.172*[#  36]+0.071*[#  20]
          +0.061*[#  12]+0.035*[#  22]+0.035*[#  30]+0.031*[#  17]+0.002*[#   2]
          +0.001*[#   9]
    |psi|^2 = 0.995
==== e(  14) =    -6.72055 eV ==== 
     psi = 0.206*[#  27]+0.206*[#  35]+0.174*[#  24]+0.174*[#  32]+0.070*[#  19]
          +0.069*[#  11]+0.036*[#  21]+0.036*[#  29]+0.015*[#  14]+0.007*[#  16]
          +0.002*[#   1]
    |psi|^2 = 0.994
==== e(  15) =    -5.78261 eV ==== 
     psi = 0.324*[#  14]+0.280*[#  16]+0.100*[#  24]+0.100*[#  32]+0.089*[#  11]
          +0.047*[#  27]+0.047*[#  35]+0.005*[#  19]+0.002*[#  21]+0.002*[#  29]
          
    |psi|^2 = 0.995
==== e(  16) =    -5.67412 eV ==== 
     psi = 0.357*[#  15]+0.275*[#  13]+0.106*[#  26]+0.106*[#  34]+0.078*[#  18]
          +0.073*[#  10]
    |psi|^2 = 0.995
==== e(  17) =    -4.71412 eV ==== 
     psi = 0.327*[#   9]+0.159*[#  28]+0.159*[#  36]+0.132*[#  17]+0.103*[#  25]
          +0.103*[#  33]+0.005*[#  12]
    |psi|^2 = 0.989
==== e(  18) =    -4.42601 eV ==== 
     psi = 0.493*[#  18]+0.188*[#  23]+0.188*[#  31]+0.071*[#  15]+0.030*[#  10]
          +0.018*[#  13]
    |psi|^2 = 0.988
==== e(  19) =    -4.20206 eV ==== 
     psi = 0.389*[#  14]+0.373*[#  16]+0.195*[#  11]+0.009*[#  24]+0.009*[#  32]
          +0.007*[#  27]+0.007*[#  35]
    |psi|^2 = 0.989
==== e(  20) =    -4.19160 eV ==== 
     psi = 0.555*[#  13]+0.270*[#  15]+0.098*[#  10]+0.029*[#  18]+0.015*[#  23]
          +0.015*[#  31]+0.004*[#  26]+0.004*[#  34]
    |psi|^2 = 0.989
==== e(  21) =    -4.05089 eV ==== 
     psi = 0.386*[#  28]+0.386*[#  36]+0.109*[#  25]+0.109*[#  33]+0.002*[#  22]
          +0.002*[#  30]
    |psi|^2 = 0.994
==== e(  22) =    -3.97474 eV ==== 
     psi = 0.452*[#  27]+0.452*[#  35]+0.042*[#  24]+0.042*[#  32]+0.001*[#  21]
          +0.001*[#  29]
    |psi|^2 = 0.992
==== e(  23) =    -3.83880 eV ==== 
     psi = 0.424*[#  17]+0.421*[#  12]+0.036*[#   9]+0.034*[#  25]+0.034*[#  33]
          +0.025*[#  20]+0.006*[#  22]+0.006*[#  30]+0.003*[#  28]+0.003*[#  36]
          
    |psi|^2 = 0.992
==== e(  24) =    -3.27073 eV ==== 
     psi = 0.411*[#  12]+0.286*[#   9]+0.275*[#  17]+0.004*[#  25]+0.004*[#  33]
          +0.001*[#  20]+0.001*[#  28]+0.001*[#  36]
    |psi|^2 = 0.985
==== e(  25) =    -3.26272 eV ==== 
     psi = 0.595*[#  10]+0.184*[#  18]+0.132*[#  15]+0.044*[#  13]+0.014*[#  23]
          +0.014*[#  31]
    |psi|^2 = 0.986
==== e(  26) =    -3.12030 eV ==== 
     psi = 0.620*[#  11]+0.283*[#  16]+0.024*[#  19]+0.013*[#  27]+0.013*[#  35]
          +0.011*[#  24]+0.011*[#  32]+0.006*[#  21]+0.006*[#  29]
    |psi|^2 = 0.987
==== e(  27) =    -2.87368 eV ==== 
     psi = 0.450*[#  24]+0.450*[#  32]+0.042*[#  27]+0.042*[#  35]+0.001*[#  21]
          +0.001*[#  29]
    |psi|^2 = 0.987
==== e(  28) =    -2.78894 eV ==== 
     psi = 0.383*[#  25]+0.383*[#  33]+0.107*[#  28]+0.107*[#  36]
    |psi|^2 = 0.984
==== e(  29) =    -2.45712 eV ==== 
     psi = 0.490*[#  26]+0.490*[#  34]
    |psi|^2 = 0.981
==== e(  30) =    -2.21726 eV ==== 
     psi = 0.488*[#  23]+0.488*[#  31]
    |psi|^2 = 0.978
==== e(  31) =    -2.20378 eV ==== 
     psi = 0.264*[#  14]+0.201*[#  27]+0.201*[#  35]+0.136*[#  24]+0.136*[#  32]
          +0.043*[#  16]+0.011*[#  11]+0.003*[#  19]
    |psi|^2 = 0.999
==== e(  32) =    -1.64009 eV ==== 
     psi = 0.387*[#  26]+0.387*[#  34]+0.132*[#  15]+0.044*[#  13]+0.042*[#  10]
          +0.007*[#  18]
    |psi|^2 = 0.998
==== e(  33) =    -1.05612 eV ==== 
     psi = 0.338*[#   9]+0.141*[#  28]+0.141*[#  36]+0.123*[#  17]+0.086*[#  12]
          +0.082*[#  25]+0.082*[#  33]+0.002*[#  20]
    |psi|^2 = 0.995
==== e(  34) =    -0.65264 eV ==== 
     psi = 0.281*[#  23]+0.281*[#  31]+0.199*[#  18]+0.148*[#  10]+0.056*[#  13]
          +0.030*[#  15]
    |psi|^2 = 0.996
==== e(  35) =     1.77136 eV ==== 
     psi = 0.397*[#  20]+0.057*[#  22]+0.057*[#  30]+0.040*[#  25]+0.040*[#  33]
          +0.013*[#  28]+0.013*[#  36]
    |psi|^2 = 0.620
==== e(  36) =     1.89996 eV ==== 
     psi = 0.371*[#  19]+0.055*[#  21]+0.055*[#  29]+0.038*[#  24]+0.038*[#  32]
          +0.013*[#  27]+0.013*[#  35]+0.001*[#  11]
    |psi|^2 = 0.586
==== e(  37) =     2.51074 eV ==== 
     psi = 0.001*[#  22]+0.001*[#  30]
    |psi|^2 = 0.004
==== e(  38) =     2.61283 eV ==== 
     psi = 0.001*[#  21]+0.001*[#  29]
    |psi|^2 = 0.005
==== e(  39) =     2.68387 eV ==== 
 
    |psi|^2 = 0.000
==== e(  40) =     2.75448 eV ==== 
 
    |psi|^2 = 0.001

 k =   0.0166650000  0.0288646267  0.0000000000
==== e(   1) =  -105.88906 eV ==== 
     psi = 0.996*[#   2]+0.001*[#  25]+0.001*[#  33]
    |psi|^2 = 1.000
==== e(   2) =  -104.55584 eV ==== 
     psi = 0.996*[#   1]+0.001*[#  24]+0.001*[#  32]
    |psi|^2 = 1.000
==== e(   3) =   -67.47817 eV ==== 
     psi = 0.947*[#   7]+0.052*[#   4]
    |psi|^2 = 1.000
==== e(   4) =   -67.10411 eV ==== 
     psi = 0.886*[#   8]+0.114*[#   5]
    |psi|^2 = 1.000
==== e(   5) =   -65.59478 eV ==== 
     psi = 1.000*[#   6]
    |psi|^2 = 1.000
==== e(   6) =   -64.91123 eV ==== 
     psi = 0.886*[#   5]+0.114*[#   8]
    |psi|^2 = 1.000
==== e(   7) =   -64.48888 eV ==== 
     psi = 0.947*[#   4]+0.052*[#   7]
    |psi|^2 = 1.000
==== e(   8) =   -64.16902 eV ==== 
     psi = 0.999*[#   3]
    |psi|^2 = 1.000
==== e(   9) =   -15.78608 eV ==== 
     psi = 0.365*[#  22]+0.365*[#  30]+0.259*[#  20]+0.003*[#  25]+0.003*[#  33]
          +0.001*[#  28]+0.001*[#  36]+0.001*[#   2]
    |psi|^2 = 1.000
==== e(  10) =   -15.57184 eV ==== 
     psi = 0.362*[#  21]+0.362*[#  29]+0.264*[#  19]+0.003*[#  24]+0.003*[#  32]
          +0.002*[#  27]+0.002*[#  35]+0.001*[#   1]
    |psi|^2 = 1.000
==== e(  11) =   -14.84928 eV ==== 
     psi = 0.495*[#  22]+0.495*[#  30]+0.002*[#  25]+0.002*[#  33]
    |psi|^2 = 0.997
==== e(  12) =   -14.60633 eV ==== 
     psi = 0.495*[#  21]+0.495*[#  29]+0.002*[#  24]+0.002*[#  32]
    |psi|^2 = 0.997
==== e(  13) =    -6.88772 eV ==== 
     psi = 0.206*[#  25]+0.206*[#  33]+0.173*[#  28]+0.173*[#  36]+0.071*[#  20]
          +0.061*[#  12]+0.035*[#  22]+0.035*[#  30]+0.031*[#  17]+0.002*[#   2]
          +0.001*[#   9]
    |psi|^2 = 0.995
==== e(  14) =    -6.71476 eV ==== 
     psi = 0.207*[#  27]+0.207*[#  35]+0.173*[#  24]+0.173*[#  32]+0.070*[#  19]
          +0.069*[#  11]+0.036*[#  21]+0.036*[#  29]+0.015*[#  14]+0.007*[#  16]
          +0.002*[#   1]
    |psi|^2 = 0.994
==== e(  15) =    -5.78685 eV ==== 
     psi = 0.322*[#  14]+0.277*[#  16]+0.101*[#  24]+0.101*[#  32]+0.088*[#  11]
          +0.047*[#  27]+0.046*[#  35]+0.005*[#  19]+0.002*[#  21]+0.002*[#  29]
          
    |psi|^2 = 0.995
==== e(  16) =    -5.67832 eV ==== 
     psi = 0.354*[#  15]+0.274*[#  13]+0.106*[#  26]+0.106*[#  34]+0.077*[#  18]
          +0.073*[#  10]
    |psi|^2 = 0.995
==== e(  17) =    -4.72809 eV ==== 
     psi = 0.321*[#   9]+0.157*[#  28]+0.157*[#  36]+0.128*[#  17]+0.103*[#  25]
          +0.103*[#  33]+0.005*[#  12]+0.003*[#  27]+0.003*[#  35]+0.002*[#  24]
          +0.002*[#  32]
    |psi|^2 = 0.989
==== e(  18) =    -4.43904 eV ==== 
     psi = 0.475*[#  18]+0.189*[#  31]+0.189*[#  23]+0.062*[#  15]+0.033*[#  10]
          +0.023*[#  13]+0.005*[#  27]+0.005*[#  35]+0.003*[#  24]+0.003*[#  32]
          
    |psi|^2 = 0.988
==== e(  19) =    -4.21670 eV ==== 
     psi = 0.433*[#  13]+0.223*[#  15]+0.075*[#  10]+0.047*[#  16]+0.045*[#  35]
          +0.045*[#  14]+0.037*[#  18]+0.024*[#  27]+0.024*[#  11]+0.008*[#  31]
          +0.007*[#  23]+0.006*[#  26]+0.005*[#  28]+0.003*[#  24]+0.003*[#  34]
          +0.002*[#  33]+0.002*[#  36]+0.001*[#  17]
    |psi|^2 = 0.989
==== e(  20) =    -4.20850 eV ==== 
     psi = 0.332*[#  14]+0.327*[#  16]+0.168*[#  11]+0.059*[#  13]+0.035*[#  15]
          +0.023*[#  27]+0.010*[#  10]+0.009*[#  32]+0.006*[#  24]+0.005*[#  18]
          +0.004*[#  34]+0.003*[#  36]+0.002*[#  28]+0.001*[#  23]
    |psi|^2 = 0.989
==== e(  21) =    -4.04750 eV ==== 
     psi = 0.384*[#  36]+0.383*[#  28]+0.099*[#  25]+0.099*[#  33]+0.008*[#  14]
          +0.007*[#  15]+0.004*[#  11]+0.002*[#  22]+0.002*[#  30]
    |psi|^2 = 0.993
==== e(  22) =    -3.96803 eV ==== 
     psi = 0.354*[#  35]+0.354*[#  27]+0.063*[#  17]+0.057*[#  12]+0.053*[#  13]
          +0.028*[#  24]+0.028*[#  32]+0.016*[#  15]+0.009*[#  10]+0.007*[#  23]
          +0.006*[#  31]+0.005*[#  20]+0.002*[#  36]+0.002*[#  28]+0.002*[#  22]
          +0.001*[#  30]+0.001*[#  33]
    |psi|^2 = 0.991
==== e(  23) =    -3.82497 eV ==== 
     psi = 0.360*[#  17]+0.359*[#  12]+0.054*[#  35]+0.053*[#  27]+0.037*[#   9]
          +0.034*[#  25]+0.033*[#  33]+0.020*[#  20]+0.010*[#  24]+0.010*[#  32]
          +0.005*[#  22]+0.005*[#  30]+0.003*[#  13]+0.002*[#  28]+0.002*[#  36]
          +0.001*[#  26]
    |psi|^2 = 0.992
==== e(  24) =    -3.27932 eV ==== 
     psi = 0.403*[#  12]+0.277*[#   9]+0.271*[#  17]+0.007*[#  25]+0.006*[#  31]
          +0.006*[#  10]+0.003*[#  23]+0.002*[#  33]+0.002*[#  18]+0.001*[#  28]
          +0.001*[#  11]+0.001*[#  15]+0.001*[#  20]+0.001*[#  36]
    |psi|^2 = 0.985
==== e(  25) =    -3.27397 eV ==== 
     psi = 0.573*[#  10]+0.174*[#  18]+0.122*[#  15]+0.042*[#  13]+0.019*[#  33]
          +0.015*[#  25]+0.014*[#  23]+0.012*[#  31]+0.005*[#  12]+0.003*[#   9]
          +0.003*[#  17]+0.001*[#  11]
    |psi|^2 = 0.985
==== e(  26) =    -3.13592 eV ==== 
     psi = 0.590*[#  11]+0.270*[#  16]+0.025*[#  19]+0.014*[#  33]+0.013*[#  25]
          +0.012*[#  27]+0.012*[#  35]+0.010*[#  32]+0.009*[#  24]+0.006*[#  21]
          +0.006*[#  29]+0.005*[#  23]+0.004*[#  10]+0.002*[#  18]+0.002*[#  31]
          +0.001*[#  36]+0.001*[#  15]
    |psi|^2 = 0.987
==== e(  27) =    -2.88269 eV ==== 
     psi = 0.449*[#  24]+0.445*[#  32]+0.038*[#  27]+0.037*[#  35]+0.003*[#  34]
          +0.003*[#  15]+0.003*[#  12]+0.001*[#  21]+0.001*[#  29]
    |psi|^2 = 0.987
==== e(  28) =    -2.78644 eV ==== 
     psi = 0.358*[#  33]+0.357*[#  25]+0.100*[#  28]+0.100*[#  36]+0.021*[#  11]
          +0.011*[#  10]+0.009*[#  16]+0.009*[#  18]+0.004*[#  15]+0.003*[#  35]
          +0.003*[#  27]+0.002*[#  23]+0.002*[#  13]+0.001*[#  31]
    |psi|^2 = 0.984
==== e(  29) =    -2.50232 eV ==== 
     psi = 0.445*[#  26]+0.431*[#  34]+0.034*[#  14]+0.020*[#  35]+0.018*[#  32]
          +0.014*[#  27]+0.008*[#  24]+0.002*[#  12]+0.002*[#  25]+0.002*[#  31]
          +0.001*[#  23]+0.001*[#  16]
    |psi|^2 = 0.982
==== e(  30) =    -2.24663 eV ==== 
     psi = 0.419*[#  31]+0.416*[#  23]+0.026*[#  27]+0.025*[#  14]+0.024*[#  35]
          +0.013*[#  34]+0.011*[#   9]+0.011*[#  26]+0.010*[#  11]+0.008*[#  24]
          +0.007*[#  32]+0.003*[#  28]+0.002*[#  25]+0.002*[#  19]
    |psi|^2 = 0.980
==== e(  31) =    -2.19811 eV ==== 
     psi = 0.209*[#  14]+0.159*[#  27]+0.154*[#  35]+0.121*[#  24]+0.114*[#  32]
          +0.055*[#  23]+0.055*[#  31]+0.045*[#  16]+0.041*[#  34]+0.029*[#  26]
          +0.006*[#  11]+0.002*[#  19]+0.001*[#   9]
    |psi|^2 = 0.996
==== e(  32) =    -1.66961 eV ==== 
     psi = 0.385*[#  26]+0.381*[#  34]+0.131*[#  15]+0.045*[#  13]+0.042*[#  10]
          +0.007*[#  18]+0.002*[#  32]+0.002*[#  35]
    |psi|^2 = 0.997
==== e(  33) =    -1.06833 eV ==== 
     psi = 0.333*[#   9]+0.139*[#  36]+0.136*[#  28]+0.125*[#  17]+0.088*[#  12]
          +0.081*[#  33]+0.079*[#  25]+0.008*[#  23]+0.003*[#  31]+0.002*[#  20]
          
    |psi|^2 = 0.994
==== e(  34) =    -0.67948 eV ==== 
     psi = 0.278*[#  31]+0.274*[#  23]+0.199*[#  18]+0.151*[#  10]+0.056*[#  13]
          +0.031*[#  15]+0.002*[#  28]+0.002*[#  25]
    |psi|^2 = 0.993
==== e(  35) =     1.80453 eV ==== 
     psi = 0.390*[#  20]+0.056*[#  22]+0.056*[#  30]+0.039*[#  25]+0.039*[#  33]
          +0.013*[#  28]+0.013*[#  36]+0.001*[#  26]+0.001*[#  34]
    |psi|^2 = 0.610
==== e(  36) =     1.93255 eV ==== 
     psi = 0.364*[#  19]+0.053*[#  21]+0.053*[#  29]+0.037*[#  24]+0.037*[#  32]
          +0.013*[#  27]+0.013*[#  35]+0.001*[#  23]+0.001*[#  31]
    |psi|^2 = 0.575
==== e(  37) =     2.56295 eV ==== 
     psi = 0.001*[#  22]+0.001*[#  30]
    |psi|^2 = 0.007
==== e(  38) =     2.66852 eV ==== 
     psi = 0.001*[#  21]+0.001*[#  29]
    |psi|^2 = 0.008
==== e(  39) =     2.69330 eV ==== 
 
    |psi|^2 = 0.000
==== e(  40) =     2.76396 eV ==== 
 
    |psi|^2 = 0.001

 k =   0.0333300000  0.0577292534  0.0000000000
==== e(   1) =  -105.88906 eV ==== 
     psi = 0.996*[#   2]+0.001*[#  25]+0.001*[#  33]
    |psi|^2 = 1.000
==== e(   2) =  -104.55584 eV ==== 
     psi = 0.996*[#   1]+0.001*[#  24]+0.001*[#  32]
    |psi|^2 = 1.000
==== e(   3) =   -67.47817 eV ==== 
     psi = 0.947*[#   7]+0.052*[#   4]
    |psi|^2 = 1.000
==== e(   4) =   -67.10411 eV ==== 
     psi = 0.886*[#   8]+0.114*[#   5]
    |psi|^2 = 1.000
==== e(   5) =   -65.59479 eV ==== 
     psi = 1.000*[#   6]
    |psi|^2 = 1.000
==== e(   6) =   -64.91123 eV ==== 
     psi = 0.886*[#   5]+0.114*[#   8]
    |psi|^2 = 1.000
==== e(   7) =   -64.48887 eV ==== 
     psi = 0.947*[#   4]+0.052*[#   7]
    |psi|^2 = 1.000
==== e(   8) =   -64.16903 eV ==== 
     psi = 0.999*[#   3]
    |psi|^2 = 1.000
==== e(   9) =   -15.76669 eV ==== 
     psi = 0.366*[#  22]+0.366*[#  30]+0.255*[#  20]+0.003*[#  25]+0.003*[#  33]
          +0.001*[#  28]+0.001*[#  36]+0.001*[#   2]
    |psi|^2 = 1.000
==== e(  10) =   -15.55218 eV ==== 
     psi = 0.364*[#  21]+0.364*[#  29]+0.259*[#  19]+0.003*[#  24]+0.003*[#  32]
          +0.002*[#  27]+0.002*[#  35]+0.001*[#   1]
    |psi|^2 = 1.000
==== e(  11) =   -14.83860 eV ==== 
     psi = 0.494*[#  22]+0.494*[#  30]+0.002*[#  25]+0.002*[#  33]
    |psi|^2 = 0.997
==== e(  12) =   -14.59532 eV ==== 
     psi = 0.494*[#  21]+0.494*[#  29]+0.002*[#  24]+0.002*[#  32]
    |psi|^2 = 0.997
==== e(  13) =    -6.86867 eV ==== 
     psi = 0.205*[#  25]+0.205*[#  33]+0.174*[#  28]+0.174*[#  36]+0.073*[#  20]
          +0.060*[#  12]+0.035*[#  22]+0.035*[#  30]+0.030*[#  17]+0.002*[#   2]
          +0.001*[#   9]
    |psi|^2 = 0.995
==== e(  14) =    -6.69769 eV ==== 
     psi = 0.209*[#  27]+0.209*[#  35]+0.169*[#  24]+0.169*[#  32]+0.071*[#  19]
          +0.069*[#  11]+0.036*[#  21]+0.036*[#  29]+0.016*[#  14]+0.006*[#  16]
          +0.002*[#   1]
    |psi|^2 = 0.994
==== e(  15) =    -5.80170 eV ==== 
     psi = 0.307*[#  14]+0.264*[#  16]+0.102*[#  24]+0.100*[#  32]+0.082*[#  11]
          +0.046*[#  27]+0.043*[#  35]+0.010*[#  15]+0.007*[#  13]+0.006*[#  34]
          +0.005*[#  19]+0.003*[#  28]+0.003*[#  36]+0.002*[#  25]+0.002*[#  10]
          +0.002*[#  33]+0.002*[#  21]+0.002*[#  29]+0.002*[#  18]+0.002*[#  26]
          
    |psi|^2 = 0.995
==== e(  16) =    -5.68799 eV ==== 
     psi = 0.339*[#  15]+0.265*[#  13]+0.107*[#  26]+0.101*[#  34]+0.074*[#  18]
          +0.070*[#  10]+0.010*[#  16]+0.010*[#  14]+0.004*[#  35]+0.004*[#  32]
          +0.003*[#  11]+0.002*[#  24]+0.002*[#  25]+0.002*[#  33]+0.002*[#  28]
          +0.001*[#  36]
    |psi|^2 = 0.995
==== e(  17) =    -4.77443 eV ==== 
     psi = 0.299*[#   9]+0.151*[#  36]+0.151*[#  28]+0.112*[#  17]+0.102*[#  25]
          +0.100*[#  33]+0.014*[#  35]+0.014*[#  27]+0.009*[#  18]+0.007*[#  32]
          +0.006*[#  12]+0.006*[#  24]+0.006*[#  31]+0.006*[#  23]+0.003*[#  13]
          +0.002*[#  10]
    |psi|^2 = 0.989
==== e(  18) =    -4.46874 eV ==== 
     psi = 0.422*[#  18]+0.186*[#  31]+0.185*[#  23]+0.044*[#  15]+0.038*[#  10]
          +0.034*[#  13]+0.014*[#  27]+0.013*[#  35]+0.011*[#   9]+0.009*[#  17]
          +0.007*[#  24]+0.007*[#  32]+0.007*[#  36]+0.006*[#  28]+0.004*[#  25]
          +0.003*[#  33]
    |psi|^2 = 0.988
==== e(  19) =    -4.27453 eV ==== 
     psi = 0.381*[#  13]+0.225*[#  15]+0.092*[#  35]+0.079*[#  27]+0.073*[#  18]
          +0.062*[#  10]+0.013*[#  16]+0.011*[#  28]+0.010*[#  17]+0.008*[#  14]
          +0.006*[#  26]+0.006*[#  34]+0.006*[#  11]+0.005*[#  12]+0.004*[#  33]
          +0.001*[#   9]+0.001*[#  20]+0.001*[#  31]+0.001*[#  30]+0.001*[#  36]
          
    |psi|^2 = 0.989
==== e(  20) =    -4.23057 eV ==== 
     psi = 0.361*[#  16]+0.339*[#  14]+0.179*[#  11]+0.023*[#  27]+0.012*[#  36]
          +0.012*[#  15]+0.011*[#  34]+0.010*[#  28]+0.008*[#  32]+0.008*[#  24]
          +0.007*[#  13]+0.005*[#  26]+0.002*[#  25]+0.002*[#  12]+0.002*[#  17]
          +0.002*[#  33]+0.002*[#  18]
    |psi|^2 = 0.989
==== e(  21) =    -4.04453 eV ==== 
     psi = 0.383*[#  36]+0.380*[#  28]+0.074*[#  25]+0.071*[#  33]+0.024*[#  14]
          +0.023*[#  15]+0.015*[#  11]+0.003*[#  10]+0.003*[#  24]+0.002*[#  32]
          +0.002*[#  26]+0.002*[#  13]+0.002*[#  30]+0.002*[#  35]+0.001*[#  22]
          +0.001*[#  18]+0.001*[#  27]+0.001*[#  19]
    |psi|^2 = 0.992
==== e(  22) =    -3.96943 eV ==== 
     psi = 0.197*[#  35]+0.194*[#  27]+0.167*[#  17]+0.161*[#  12]+0.118*[#  13]
          +0.039*[#  15]+0.020*[#  10]+0.015*[#  20]+0.014*[#  23]+0.011*[#  31]
          +0.008*[#  24]+0.007*[#  32]+0.007*[#  36]+0.005*[#  33]+0.005*[#  22]
          +0.004*[#  30]+0.003*[#   9]+0.003*[#  34]+0.002*[#  14]+0.002*[#  25]
          +0.002*[#  26]+0.002*[#  28]+0.001*[#  16]
    |psi|^2 = 0.990
==== e(  23) =    -3.78282 eV ==== 
     psi = 0.247*[#  17]+0.236*[#  12]+0.147*[#  35]+0.144*[#  27]+0.038*[#   9]
          +0.033*[#  25]+0.031*[#  33]+0.024*[#  13]+0.024*[#  24]+0.023*[#  32]
          +0.012*[#  20]+0.007*[#  31]+0.007*[#  15]+0.003*[#  26]+0.003*[#  23]
          +0.003*[#  30]+0.003*[#  10]+0.003*[#  22]+0.001*[#  18]+0.001*[#  34]
          
    |psi|^2 = 0.991
==== e(  24) =    -3.31708 eV ==== 
     psi = 0.241*[#  10]+0.174*[#  12]+0.121*[#  17]+0.114*[#   9]+0.071*[#  18]
          +0.068*[#  25]+0.043*[#  15]+0.036*[#  11]+0.035*[#  33]+0.034*[#  31]
          +0.017*[#  13]+0.015*[#  16]+0.004*[#  23]+0.004*[#  19]+0.003*[#  24]
          +0.001*[#  28]+0.001*[#  26]+0.001*[#  29]
    |psi|^2 = 0.985
==== e(  25) =    -3.30207 eV ==== 
     psi = 0.263*[#  10]+0.213*[#  12]+0.138*[#  17]+0.136*[#   9]+0.072*[#  18]
          +0.051*[#  15]+0.045*[#  33]+0.028*[#  23]+0.017*[#  13]+0.014*[#  25]
          +0.002*[#  34]+0.002*[#  36]+0.001*[#  27]
    |psi|^2 = 0.985
==== e(  26) =    -3.17085 eV ==== 
     psi = 0.491*[#  11]+0.228*[#  16]+0.045*[#  10]+0.029*[#  33]+0.025*[#  19]
          +0.022*[#  25]+0.021*[#  18]+0.017*[#  23]+0.014*[#   9]+0.013*[#  15]
          +0.011*[#  17]+0.011*[#  12]+0.010*[#  32]+0.010*[#  27]+0.007*[#  35]
          +0.007*[#  21]+0.006*[#  29]+0.004*[#  24]+0.004*[#  13]+0.002*[#  36]
          +0.002*[#  31]+0.001*[#  14]+0.001*[#  26]
    |psi|^2 = 0.986
==== e(  27) =    -2.91148 eV ==== 
     psi = 0.445*[#  24]+0.415*[#  32]+0.028*[#  27]+0.024*[#  34]+0.023*[#  35]
          +0.013*[#  12]+0.011*[#  15]+0.004*[#  28]+0.004*[#  36]+0.003*[#  18]
          +0.002*[#  17]+0.002*[#  20]+0.002*[#  13]+0.002*[#  31]+0.001*[#  23]
          +0.001*[#  25]+0.001*[#  29]+0.001*[#  21]+0.001*[#  22]+0.001*[#  30]
          
    |psi|^2 = 0.987
==== e(  28) =    -2.78362 eV ==== 
     psi = 0.301*[#  33]+0.289*[#  25]+0.081*[#  28]+0.080*[#  36]+0.070*[#  11]
          +0.034*[#  10]+0.031*[#  18]+0.030*[#  16]+0.015*[#  35]+0.013*[#  15]
          +0.010*[#  23]+0.010*[#  27]+0.006*[#  13]+0.003*[#  31]+0.003*[#  14]
          +0.003*[#  34]+0.003*[#  26]
    |psi|^2 = 0.985
==== e(  29) =    -2.60926 eV ==== 
     psi = 0.382*[#  26]+0.308*[#  34]+0.091*[#  14]+0.070*[#  32]+0.054*[#  35]
          +0.026*[#  27]+0.013*[#  25]+0.008*[#  12]+0.008*[#  24]+0.004*[#  31]
          +0.003*[#  16]+0.003*[#  36]+0.002*[#  11]+0.002*[#  20]+0.002*[#  22]
          +0.002*[#  15]+0.001*[#  23]+0.001*[#  19]
    |psi|^2 = 0.982
==== e(  30) =    -2.31003 eV ==== 
     psi = 0.406*[#  31]+0.382*[#  23]+0.043*[#   9]+0.024*[#  11]+0.022*[#  34]
          +0.020*[#  27]+0.016*[#  26]+0.015*[#  35]+0.012*[#  28]+0.012*[#  14]
          +0.012*[#  25]+0.003*[#  19]+0.002*[#  17]+0.002*[#  24]+0.002*[#  29]
          +0.001*[#  36]+0.001*[#  12]+0.001*[#  21]
    |psi|^2 = 0.980
==== e(  31) =    -2.21374 eV ==== 
     psi = 0.175*[#  14]+0.145*[#  27]+0.137*[#  34]+0.128*[#  24]+0.116*[#  35]
          +0.086*[#  32]+0.062*[#  26]+0.053*[#  16]+0.036*[#  31]+0.035*[#  23]
          +0.006*[#  11]+0.004*[#  33]+0.003*[#   9]+0.002*[#  15]+0.002*[#  12]
          +0.002*[#  30]
    |psi|^2 = 0.994
==== e(  32) =    -1.74778 eV ==== 
     psi = 0.386*[#  26]+0.352*[#  34]+0.128*[#  15]+0.047*[#  13]+0.041*[#  10]
          +0.014*[#  32]+0.012*[#  35]+0.007*[#  18]+0.003*[#  14]
    |psi|^2 = 0.994
==== e(  33) =    -1.10817 eV ==== 
     psi = 0.316*[#   9]+0.133*[#  36]+0.128*[#  17]+0.116*[#  28]+0.090*[#  12]
          +0.081*[#  33]+0.067*[#  25]+0.039*[#  23]+0.005*[#  18]+0.004*[#  31]
          +0.004*[#  10]+0.001*[#  24]+0.001*[#  13]+0.001*[#  21]+0.001*[#  20]
          
    |psi|^2 = 0.991
==== e(  34) =    -0.74746 eV ==== 
     psi = 0.274*[#  31]+0.246*[#  23]+0.194*[#  18]+0.155*[#  10]+0.054*[#  13]
          +0.032*[#  15]+0.012*[#  28]+0.010*[#  25]+0.006*[#   9]+0.003*[#  17]
          +0.002*[#  12]
    |psi|^2 = 0.989
==== e(  35) =     1.89715 eV ==== 
     psi = 0.370*[#  20]+0.050*[#  22]+0.050*[#  30]+0.036*[#  25]+0.036*[#  33]
          +0.012*[#  28]+0.012*[#  36]+0.004*[#  34]+0.004*[#  26]+0.002*[#  27]
          +0.002*[#  35]+0.001*[#  24]+0.001*[#  32]
    |psi|^2 = 0.583
==== e(  36) =     2.02362 eV ==== 
     psi = 0.342*[#  19]+0.047*[#  29]+0.047*[#  21]+0.034*[#  24]+0.034*[#  32]
          +0.012*[#  27]+0.012*[#  35]+0.004*[#  23]+0.004*[#  31]+0.002*[#  28]
          +0.002*[#  36]+0.001*[#  25]+0.001*[#  33]
    |psi|^2 = 0.544
==== e(  37) =     2.69014 eV ==== 
     psi = 0.001*[#  34]
    |psi|^2 = 0.007
==== e(  38) =     2.73851 eV ==== 
     psi = 0.001*[#  34]
    |psi|^2 = 0.005
==== e(  39) =     2.78065 eV ==== 
 
    |psi|^2 = 0.004
==== e(  40) =     2.83304 eV ==== 
     psi = 0.003*[#  23]+0.001*[#  31]+0.001*[#  36]
    |psi|^2 = 0.013

 k =   0.0499950000  0.0865938801  0.0000000000
==== e(   1) =  -105.88906 eV ==== 
     psi = 0.995*[#   2]+0.001*[#  25]+0.001*[#  33]
    |psi|^2 = 1.000
==== e(   2) =  -104.55584 eV ==== 
     psi = 0.995*[#   1]+0.001*[#  24]+0.001*[#  32]
    |psi|^2 = 1.000
==== e(   3) =   -67.47818 eV ==== 
     psi = 0.947*[#   7]+0.052*[#   4]
    |psi|^2 = 1.000
==== e(   4) =   -67.10412 eV ==== 
     psi = 0.886*[#   8]+0.114*[#   5]
    |psi|^2 = 1.000
==== e(   5) =   -65.59480 eV ==== 
     psi = 0.999*[#   6]
    |psi|^2 = 1.000
==== e(   6) =   -64.91124 eV ==== 
     psi = 0.886*[#   5]+0.114*[#   8]
    |psi|^2 = 1.000
==== e(   7) =   -64.48887 eV ==== 
     psi = 0.947*[#   4]+0.052*[#   7]
    |psi|^2 = 1.000
==== e(   8) =   -64.16905 eV ==== 
     psi = 0.999*[#   3]
    |psi|^2 = 1.000
==== e(   9) =   -15.73468 eV ==== 
     psi = 0.369*[#  22]+0.369*[#  30]+0.248*[#  20]+0.003*[#  25]+0.003*[#  33]
          +0.001*[#  28]+0.001*[#  36]+0.001*[#   2]
    |psi|^2 = 1.000
==== e(  10) =   -15.51973 eV ==== 
     psi = 0.366*[#  21]+0.366*[#  29]+0.252*[#  19]+0.003*[#  24]+0.003*[#  32]
          +0.002*[#  27]+0.002*[#  35]+0.001*[#   1]
    |psi|^2 = 1.000
==== e(  11) =   -14.82115 eV ==== 
     psi = 0.493*[#  22]+0.493*[#  30]+0.002*[#  25]+0.002*[#  33]
    |psi|^2 = 0.997
==== e(  12) =   -14.57733 eV ==== 
     psi = 0.493*[#  21]+0.493*[#  29]+0.002*[#  24]+0.002*[#  32]
    |psi|^2 = 0.997
==== e(  13) =    -6.83777 eV ==== 
     psi = 0.202*[#  25]+0.202*[#  33]+0.176*[#  28]+0.176*[#  36]+0.075*[#  20]
          +0.059*[#  12]+0.035*[#  22]+0.035*[#  30]+0.030*[#  17]+0.002*[#   2]
          +0.002*[#   9]
    |psi|^2 = 0.995
==== e(  14) =    -6.67032 eV ==== 
     psi = 0.214*[#  35]+0.214*[#  27]+0.163*[#  24]+0.163*[#  32]+0.073*[#  19]
          +0.069*[#  11]+0.036*[#  21]+0.036*[#  29]+0.018*[#  14]+0.005*[#  16]
          +0.002*[#   1]
    |psi|^2 = 0.994
==== e(  15) =    -5.83118 eV ==== 
     psi = 0.274*[#  14]+0.232*[#  16]+0.100*[#  24]+0.096*[#  32]+0.070*[#  11]
          +0.043*[#  27]+0.036*[#  35]+0.036*[#  15]+0.024*[#  13]+0.019*[#  34]
          +0.009*[#  26]+0.008*[#  28]+0.008*[#  10]+0.008*[#  36]+0.006*[#  18]
          +0.006*[#  25]+0.006*[#  33]+0.006*[#  19]+0.003*[#  21]+0.003*[#  29]
          
    |psi|^2 = 0.994
==== e(  16) =    -5.69704 eV ==== 
     psi = 0.304*[#  15]+0.245*[#  13]+0.104*[#  26]+0.088*[#  34]+0.068*[#  18]
          +0.062*[#  10]+0.036*[#  16]+0.034*[#  14]+0.013*[#  32]+0.012*[#  35]
          +0.012*[#  11]+0.008*[#  24]+0.002*[#  33]+0.002*[#  25]+0.002*[#  28]
          +0.001*[#  36]
    |psi|^2 = 0.995
==== e(  17) =    -4.85907 eV ==== 
     psi = 0.257*[#   9]+0.137*[#  36]+0.137*[#  28]+0.097*[#  25]+0.092*[#  33]
          +0.086*[#  17]+0.032*[#  27]+0.032*[#  35]+0.027*[#  18]+0.021*[#  31]
          +0.019*[#  23]+0.014*[#  32]+0.012*[#  24]+0.009*[#  13]+0.007*[#  12]
          +0.005*[#  10]+0.001*[#  20]
    |psi|^2 = 0.989
==== e(  18) =    -4.49768 eV ==== 
     psi = 0.346*[#  18]+0.173*[#  31]+0.171*[#  23]+0.044*[#  13]+0.041*[#  10]
          +0.036*[#   9]+0.030*[#  17]+0.027*[#  15]+0.022*[#  36]+0.021*[#  27]
          +0.019*[#  28]+0.018*[#  35]+0.013*[#  33]+0.012*[#  25]+0.007*[#  24]
          +0.007*[#  32]
    |psi|^2 = 0.988
==== e(  19) =    -4.35586 eV ==== 
     psi = 0.289*[#  13]+0.202*[#  15]+0.119*[#  35]+0.115*[#  27]+0.112*[#  18]
          +0.043*[#  10]+0.025*[#  17]+0.016*[#  12]+0.014*[#  28]+0.013*[#  34]
          +0.007*[#  16]+0.006*[#  33]+0.005*[#  26]+0.004*[#  20]+0.003*[#  30]
          +0.003*[#  32]+0.003*[#  11]+0.002*[#  24]+0.002*[#   9]+0.002*[#  23]
          +0.001*[#  14]
    |psi|^2 = 0.988
==== e(  20) =    -4.27119 eV ==== 
     psi = 0.363*[#  16]+0.301*[#  14]+0.170*[#  11]+0.025*[#  27]+0.024*[#  34]
          +0.020*[#  36]+0.018*[#  28]+0.015*[#  26]+0.011*[#  24]+0.008*[#  12]
          +0.007*[#  32]+0.006*[#  15]+0.006*[#  17]+0.003*[#  25]+0.003*[#  33]
          +0.002*[#  22]+0.002*[#  20]+0.001*[#  31]+0.001*[#  19]
    |psi|^2 = 0.989
==== e(  21) =    -4.06224 eV ==== 
     psi = 0.374*[#  28]+0.374*[#  36]+0.050*[#  15]+0.039*[#  25]+0.032*[#  14]
          +0.031*[#  33]+0.031*[#  11]+0.009*[#  10]+0.007*[#  13]+0.006*[#  24]
          +0.005*[#  26]+0.005*[#  32]+0.005*[#  27]+0.004*[#  23]+0.004*[#  19]
          +0.003*[#  17]+0.002*[#  18]+0.001*[#  21]+0.001*[#  30]+0.001*[#  12]
          +0.001*[#  29]
    |psi|^2 = 0.990
==== e(  22) =    -3.98632 eV ==== 
     psi = 0.205*[#  12]+0.197*[#  17]+0.161*[#  13]+0.105*[#  35]+0.094*[#  27]
          +0.056*[#  15]+0.032*[#  10]+0.020*[#  20]+0.017*[#  14]+0.016*[#  36]
          +0.015*[#  23]+0.011*[#  31]+0.011*[#  33]+0.009*[#  16]+0.007*[#  22]
          +0.007*[#  34]+0.006*[#  11]+0.005*[#   9]+0.005*[#  30]+0.004*[#  26]
          +0.002*[#  25]+0.002*[#  24]
    |psi|^2 = 0.990
==== e(  23) =    -3.72774 eV ==== 
     psi = 0.197*[#  17]+0.191*[#  35]+0.184*[#  27]+0.150*[#  12]+0.053*[#  13]
          +0.040*[#   9]+0.033*[#  25]+0.032*[#  33]+0.025*[#  24]+0.023*[#  32]
          +0.017*[#  15]+0.017*[#  31]+0.006*[#  20]+0.005*[#  26]+0.005*[#  23]
          +0.005*[#  10]+0.002*[#  18]+0.001*[#  30]+0.001*[#  16]+0.001*[#  22]
          
    |psi|^2 = 0.990
==== e(  24) =    -3.39658 eV ==== 
     psi = 0.166*[#  12]+0.129*[#  25]+0.118*[#  10]+0.105*[#  17]+0.085*[#  33]
          +0.085*[#   9]+0.085*[#  11]+0.057*[#  31]+0.037*[#  23]+0.034*[#  16]
          +0.031*[#  18]+0.012*[#  15]+0.011*[#  19]+0.009*[#  13]+0.007*[#  24]
          +0.004*[#  29]+0.003*[#  21]+0.002*[#  26]+0.002*[#  36]+0.001*[#  30]
          +0.001*[#  35]
    |psi|^2 = 0.985
==== e(  25) =    -3.33863 eV ==== 
     psi = 0.279*[#  10]+0.184*[#  12]+0.111*[#  17]+0.104*[#   9]+0.087*[#  33]
          +0.067*[#  18]+0.043*[#  15]+0.041*[#  25]+0.039*[#  23]+0.015*[#  13]
          +0.004*[#  27]+0.004*[#  34]+0.002*[#  31]+0.001*[#  35]
    |psi|^2 = 0.985
==== e(  26) =    -3.20265 eV ==== 
     psi = 0.355*[#  11]+0.173*[#  16]+0.108*[#  10]+0.055*[#  18]+0.050*[#   9]
          +0.044*[#  17]+0.034*[#  12]+0.028*[#  15]+0.022*[#  33]+0.021*[#  19]
          +0.020*[#  23]+0.014*[#  25]+0.012*[#  32]+0.010*[#  13]+0.009*[#  27]
          +0.006*[#  21]+0.005*[#  29]+0.005*[#  35]+0.005*[#  26]+0.003*[#  14]
          +0.003*[#  34]+0.002*[#  36]
    |psi|^2 = 0.985
==== e(  27) =    -2.96381 eV ==== 
     psi = 0.423*[#  24]+0.327*[#  32]+0.078*[#  34]+0.038*[#  12]+0.022*[#  15]
          +0.018*[#  27]+0.012*[#  28]+0.008*[#  26]+0.007*[#  36]+0.007*[#  14]
          +0.005*[#  17]+0.005*[#  31]+0.005*[#  20]+0.004*[#  23]+0.004*[#  13]
          +0.004*[#  18]+0.004*[#  35]+0.003*[#  11]+0.002*[#  30]+0.002*[#  22]
          +0.002*[#  33]+0.002*[#  25]+0.001*[#  29]+0.001*[#   9]
    |psi|^2 = 0.987
==== e(  28) =    -2.80281 eV ==== 
     psi = 0.190*[#  33]+0.138*[#  25]+0.085*[#  11]+0.079*[#  26]+0.075*[#  35]
          +0.054*[#  14]+0.051*[#  10]+0.047*[#  18]+0.043*[#  36]+0.040*[#  28]
          +0.037*[#  34]+0.035*[#  27]+0.035*[#  16]+0.030*[#  32]+0.019*[#  23]
          +0.008*[#  13]+0.006*[#  15]+0.005*[#  12]+0.003*[#  24]+0.001*[#  19]
          +0.001*[#  21]
    |psi|^2 = 0.984
==== e(  29) =    -2.72217 eV ==== 
     psi = 0.250*[#  26]+0.136*[#  32]+0.127*[#  34]+0.100*[#  25]+0.099*[#  14]
          +0.048*[#  11]+0.044*[#  33]+0.037*[#  35]+0.024*[#  16]+0.022*[#  36]
          +0.021*[#  15]+0.019*[#  28]+0.012*[#  18]+0.010*[#  27]+0.009*[#  31]
          +0.008*[#  12]+0.006*[#  10]+0.003*[#  13]+0.003*[#  22]+0.002*[#  23]
          +0.002*[#  24]+0.001*[#  20]
    |psi|^2 = 0.983
==== e(  30) =    -2.38681 eV ==== 
     psi = 0.373*[#  31]+0.314*[#  23]+0.093*[#   9]+0.040*[#  11]+0.033*[#  25]
          +0.027*[#  28]+0.021*[#  34]+0.017*[#  26]+0.016*[#  27]+0.007*[#  35]
          +0.006*[#  17]+0.005*[#  14]+0.005*[#  16]+0.004*[#  32]+0.003*[#  19]
          +0.003*[#  12]+0.003*[#  18]+0.002*[#  29]+0.002*[#  33]
    |psi|^2 = 0.981
==== e(  31) =    -2.26358 eV ==== 
     psi = 0.250*[#  34]+0.146*[#  24]+0.134*[#  14]+0.134*[#  27]+0.072*[#  26]
          +0.068*[#  35]+0.059*[#  16]+0.042*[#  32]+0.024*[#  31]+0.021*[#  23]
          +0.008*[#  33]+0.007*[#  11]+0.007*[#  15]+0.005*[#   9]+0.004*[#  30]
          +0.003*[#  12]+0.003*[#  13]+0.002*[#  10]+0.001*[#  20]
    |psi|^2 = 0.992
==== e(  32) =    -1.85219 eV ==== 
     psi = 0.389*[#  26]+0.292*[#  34]+0.119*[#  15]+0.050*[#  13]+0.039*[#  10]
          +0.038*[#  32]+0.035*[#  35]+0.011*[#  14]+0.007*[#  18]+0.004*[#  16]
          +0.001*[#  22]+0.001*[#  23]
    |psi|^2 = 0.991
==== e(  33) =    -1.17700 eV ==== 
     psi = 0.283*[#   9]+0.129*[#  17]+0.124*[#  36]+0.094*[#  23]+0.090*[#  12]
          +0.081*[#  33]+0.080*[#  28]+0.045*[#  25]+0.020*[#  18]+0.017*[#  10]
          +0.005*[#  13]+0.004*[#  24]+0.003*[#  21]+0.003*[#  15]+0.003*[#  31]
          +0.001*[#  32]
    |psi|^2 = 0.986
==== e(  34) =    -0.83197 eV ==== 
     psi = 0.268*[#  31]+0.194*[#  23]+0.179*[#  18]+0.156*[#  10]+0.051*[#  13]
          +0.034*[#  28]+0.032*[#  15]+0.026*[#  25]+0.023*[#   9]+0.012*[#  17]
          +0.008*[#  12]+0.002*[#  36]+0.001*[#  29]
    |psi|^2 = 0.987
==== e(  35) =     2.03241 eV ==== 
     psi = 0.342*[#  20]+0.044*[#  22]+0.043*[#  30]+0.032*[#  25]+0.032*[#  33]
          +0.011*[#  28]+0.011*[#  36]+0.008*[#  34]+0.007*[#  26]+0.003*[#  27]
          +0.003*[#  35]+0.002*[#  24]+0.002*[#  32]
    |psi|^2 = 0.542
==== e(  36) =     2.15674 eV ==== 
     psi = 0.312*[#  19]+0.040*[#  29]+0.040*[#  21]+0.030*[#  32]+0.029*[#  24]
          +0.010*[#  27]+0.011*[#  35]+0.008*[#  23]+0.007*[#  31]+0.003*[#  28]
          +0.003*[#  36]+0.002*[#  25]+0.002*[#  33]
    |psi|^2 = 0.498
==== e(  37) =     2.74893 eV ==== 
 
    |psi|^2 = 0.002
==== e(  38) =     2.82593 eV ==== 
 
    |psi|^2 = 0.002
==== e(  39) =     2.93259 eV ==== 
     psi = 0.004*[#  34]+0.003*[#  27]+0.002*[#  26]+0.001*[#  19]+0.001*[#  22]
          
    |psi|^2 = 0.016
==== e(  40) =     3.04643 eV ==== 
     psi = 0.008*[#  20]+0.005*[#  23]+0.005*[#  36]+0.002*[#  31]+0.001*[#  28]
          +0.001*[#  29]+0.001*[#  22]+0.001*[#  30]
    |psi|^2 = 0.031

 k =   0.0666600000  0.1154585068  0.0000000000
==== e(   1) =  -105.88906 eV ==== 
     psi = 0.995*[#   2]+0.001*[#  25]+0.001*[#  33]
    |psi|^2 = 1.000
==== e(   2) =  -104.55584 eV ==== 
     psi = 0.995*[#   1]+0.001*[#  24]+0.001*[#  32]
    |psi|^2 = 1.000
==== e(   3) =   -67.47819 eV ==== 
     psi = 0.947*[#   7]+0.052*[#   4]
    |psi|^2 = 1.000
==== e(   4) =   -67.10412 eV ==== 
     psi = 0.886*[#   8]+0.114*[#   5]
    |psi|^2 = 1.000
==== e(   5) =   -65.59482 eV ==== 
     psi = 0.999*[#   6]
    |psi|^2 = 1.000
==== e(   6) =   -64.91125 eV ==== 
     psi = 0.886*[#   5]+0.114*[#   8]
    |psi|^2 = 1.000
==== e(   7) =   -64.48887 eV ==== 
     psi = 0.947*[#   4]+0.052*[#   7]
    |psi|^2 = 1.000
==== e(   8) =   -64.16907 eV ==== 
     psi = 0.999*[#   3]
    |psi|^2 = 1.000
==== e(   9) =   -15.69052 eV ==== 
     psi = 0.373*[#  22]+0.373*[#  30]+0.238*[#  20]+0.003*[#  25]+0.003*[#  33]
          +0.002*[#  26]+0.001*[#  28]+0.001*[#  36]+0.001*[#  34]
    |psi|^2 = 1.000
==== e(  10) =   -15.47493 eV ==== 
     psi = 0.370*[#  21]+0.370*[#  29]+0.242*[#  19]+0.003*[#  24]+0.003*[#  32]
          +0.002*[#  27]+0.002*[#  35]+0.002*[#  31]+0.001*[#  23]
    |psi|^2 = 1.000
==== e(  11) =   -14.79747 eV ==== 
     psi = 0.492*[#  22]+0.492*[#  30]+0.002*[#  25]+0.002*[#  33]+0.001*[#  34]
          +0.001*[#  26]
    |psi|^2 = 0.997
==== e(  12) =   -14.55290 eV ==== 
     psi = 0.492*[#  21]+0.492*[#  29]+0.002*[#  24]+0.002*[#  32]+0.001*[#  23]
          +0.001*[#  31]
    |psi|^2 = 0.997
==== e(  13) =    -6.79641 eV ==== 
     psi = 0.198*[#  33]+0.198*[#  25]+0.178*[#  28]+0.178*[#  36]+0.078*[#  20]
          +0.057*[#  12]+0.035*[#  22]+0.035*[#  30]+0.028*[#  17]+0.002*[#   2]
          +0.002*[#   9]
    |psi|^2 = 0.995
==== e(  14) =    -6.63449 eV ==== 
     psi = 0.220*[#  35]+0.220*[#  27]+0.154*[#  24]+0.154*[#  32]+0.075*[#  19]
          +0.069*[#  11]+0.036*[#  21]+0.036*[#  29]+0.020*[#  14]+0.004*[#  16]
          +0.002*[#   1]+0.001*[#  25]+0.001*[#  33]
    |psi|^2 = 0.994
==== e(  15) =    -5.87558 eV ==== 
     psi = 0.234*[#  14]+0.192*[#  16]+0.099*[#  24]+0.093*[#  32]+0.064*[#  15]
          +0.055*[#  11]+0.042*[#  13]+0.040*[#  27]+0.035*[#  34]+0.028*[#  35]
          +0.019*[#  26]+0.016*[#  10]+0.016*[#  28]+0.015*[#  36]+0.011*[#  25]
          +0.011*[#  18]+0.010*[#  33]+0.007*[#  19]+0.003*[#  21]+0.003*[#  29]
          
    |psi|^2 = 0.994
==== e(  16) =    -5.70260 eV ==== 
     psi = 0.262*[#  15]+0.223*[#  13]+0.101*[#  26]+0.072*[#  34]+0.067*[#  16]
          +0.061*[#  18]+0.060*[#  14]+0.053*[#  10]+0.026*[#  32]+0.022*[#  11]
          +0.022*[#  35]+0.015*[#  24]+0.002*[#  33]+0.002*[#  25]+0.002*[#  28]
          +0.001*[#  27]+0.001*[#  19]
    |psi|^2 = 0.995
==== e(  17) =    -4.97802 eV ==== 
     psi = 0.212*[#   9]+0.124*[#  28]+0.123*[#  36]+0.092*[#  25]+0.082*[#  33]
          +0.060*[#  17]+0.052*[#  27]+0.050*[#  35]+0.043*[#  18]+0.040*[#  31]
          +0.034*[#  23]+0.019*[#  32]+0.016*[#  13]+0.016*[#  24]+0.009*[#  10]
          +0.008*[#  12]+0.003*[#  20]+0.002*[#  34]+0.001*[#  30]+0.001*[#  22]
          +0.001*[#  29]
    |psi|^2 = 0.988
==== e(  18) =    -4.52136 eV ==== 
     psi = 0.217*[#  18]+0.141*[#  31]+0.140*[#  23]+0.077*[#  13]+0.069*[#  17]
          +0.062*[#   9]+0.050*[#  10]+0.047*[#  27]+0.040*[#  36]+0.038*[#  28]
          +0.036*[#  35]+0.030*[#  33]+0.022*[#  25]+0.005*[#  15]+0.004*[#  34]
          +0.003*[#  32]+0.002*[#  24]+0.002*[#  12]
    |psi|^2 = 0.987
==== e(  19) =    -4.46366 eV ==== 
     psi = 0.197*[#  18]+0.179*[#  15]+0.165*[#  13]+0.124*[#  27]+0.112*[#  35]
          +0.030*[#  12]+0.027*[#  34]+0.026*[#  17]+0.024*[#  23]+0.020*[#  31]
          +0.018*[#  24]+0.017*[#  10]+0.011*[#  32]+0.008*[#  20]+0.007*[#  28]
          +0.005*[#  30]+0.004*[#  33]+0.004*[#  16]+0.003*[#  36]+0.003*[#  26]
          +0.001*[#  22]
    |psi|^2 = 0.986
==== e(  20) =    -4.33693 eV ==== 
     psi = 0.354*[#  16]+0.239*[#  14]+0.153*[#  11]+0.041*[#  34]+0.034*[#  26]
          +0.032*[#  28]+0.024*[#  36]+0.019*[#  27]+0.017*[#  13]+0.016*[#  12]
          +0.013*[#  24]+0.008*[#  17]+0.006*[#  32]+0.005*[#  31]+0.005*[#  10]
          +0.004*[#  35]+0.004*[#  22]+0.004*[#  20]+0.002*[#  33]+0.002*[#  19]
          +0.002*[#  15]+0.001*[#  25]
    |psi|^2 = 0.988
==== e(  21) =    -4.12979 eV ==== 
     psi = 0.350*[#  36]+0.342*[#  28]+0.077*[#  15]+0.053*[#  11]+0.031*[#  14]
          +0.019*[#  10]+0.016*[#  13]+0.014*[#  23]+0.011*[#  26]+0.010*[#  24]
          +0.010*[#  32]+0.009*[#  17]+0.009*[#  19]+0.008*[#  25]+0.005*[#  27]
          +0.005*[#  31]+0.004*[#  21]+0.003*[#  29]+0.003*[#  33]+0.002*[#  12]
          +0.002*[#  16]+0.001*[#  18]+0.001*[#  30]
    |psi|^2 = 0.987
==== e(  22) =    -4.00531 eV ==== 
     psi = 0.196*[#  12]+0.189*[#  13]+0.174*[#  17]+0.073*[#  15]+0.057*[#  35]
          +0.049*[#  14]+0.047*[#  10]+0.043*[#  27]+0.025*[#  16]+0.021*[#  20]
          +0.020*[#  36]+0.018*[#  11]+0.012*[#  23]+0.010*[#  31]+0.010*[#  33]
          +0.009*[#  34]+0.007*[#  22]+0.006*[#   9]+0.006*[#  18]+0.005*[#  30]
          +0.005*[#  26]+0.003*[#  28]+0.003*[#  25]
    |psi|^2 = 0.990
==== e(  23) =    -3.68242 eV ==== 
     psi = 0.220*[#  17]+0.186*[#  35]+0.185*[#  27]+0.081*[#  12]+0.071*[#  13]
          +0.047*[#   9]+0.046*[#  33]+0.037*[#  31]+0.032*[#  15]+0.023*[#  25]
          +0.019*[#  24]+0.017*[#  32]+0.006*[#  26]+0.006*[#  10]+0.003*[#  16]
          +0.003*[#  20]+0.002*[#  11]
    |psi|^2 = 0.989
==== e(  24) =    -3.49409 eV ==== 
     psi = 0.205*[#  12]+0.153*[#  25]+0.100*[#  23]+0.083*[#  11]+0.081*[#  33]
          +0.077*[#  17]+0.070*[#  31]+0.056*[#   9]+0.029*[#  16]+0.022*[#  10]
          +0.020*[#  35]+0.016*[#  36]+0.015*[#  19]+0.012*[#  24]+0.011*[#  28]
          +0.007*[#  13]+0.006*[#  29]+0.006*[#  18]+0.005*[#  26]+0.004*[#  21]
          +0.002*[#  27]+0.001*[#  30]+0.001*[#  20]
    |psi|^2 = 0.985
==== e(  25) =    -3.37529 eV ==== 
     psi = 0.299*[#  10]+0.156*[#  33]+0.132*[#  12]+0.093*[#  25]+0.066*[#  17]
          +0.063*[#  18]+0.062*[#   9]+0.038*[#  23]+0.032*[#  15]+0.013*[#  13]
          +0.009*[#  27]+0.006*[#  34]+0.004*[#  28]+0.002*[#  14]+0.001*[#  32]
          +0.001*[#  31]
    |psi|^2 = 0.985
==== e(  26) =    -3.22845 eV ==== 
     psi = 0.257*[#  11]+0.142*[#  16]+0.125*[#  10]+0.083*[#   9]+0.080*[#  17]
          +0.078*[#  18]+0.039*[#  12]+0.031*[#  15]+0.017*[#  19]+0.016*[#  32]
          +0.013*[#  23]+0.013*[#  13]+0.013*[#  33]+0.012*[#  26]+0.012*[#  14]
          +0.010*[#  34]+0.010*[#  25]+0.008*[#  27]+0.008*[#  35]+0.005*[#  21]
          +0.004*[#  29]+0.003*[#  24]+0.003*[#  28]+0.002*[#  36]+0.001*[#  20]
          +0.001*[#  22]
    |psi|^2 = 0.985
==== e(  27) =    -3.03989 eV ==== 
     psi = 0.352*[#  24]+0.170*[#  32]+0.135*[#  34]+0.091*[#  12]+0.040*[#  14]
          +0.040*[#  26]+0.027*[#  15]+0.021*[#  28]+0.013*[#  11]+0.011*[#  23]
          +0.011*[#  27]+0.010*[#  31]+0.009*[#  36]+0.008*[#  33]+0.007*[#  20]
          +0.007*[#  13]+0.007*[#  35]+0.005*[#  17]+0.005*[#  10]+0.004*[#  22]
          +0.004*[#   9]+0.003*[#  30]+0.002*[#  25]+0.002*[#  29]+0.001*[#  19]
          
    |psi|^2 = 0.986
==== e(  28) =    -2.90388 eV ==== 
     psi = 0.233*[#  32]+0.184*[#  26]+0.162*[#  14]+0.115*[#  35]+0.051*[#  27]
          +0.041*[#  33]+0.040*[#  10]+0.027*[#  18]+0.024*[#  11]+0.024*[#  24]
          +0.019*[#  34]+0.012*[#  36]+0.009*[#  25]+0.008*[#  15]+0.008*[#  16]
          +0.006*[#  12]+0.004*[#  23]+0.004*[#   9]+0.002*[#  31]+0.002*[#  19]
          +0.002*[#  13]+0.002*[#  21]+0.001*[#  28]
    |psi|^2 = 0.983
==== e(  29) =    -2.76075 eV ==== 
     psi = 0.173*[#  11]+0.172*[#  25]+0.128*[#  33]+0.074*[#  16]+0.069*[#  32]
          +0.061*[#  26]+0.059*[#  18]+0.041*[#  15]+0.039*[#  36]+0.039*[#  28]
          +0.037*[#  10]+0.023*[#  14]+0.023*[#  23]+0.017*[#  34]+0.014*[#  13]
          +0.011*[#  31]+0.002*[#  24]+0.001*[#  22]+0.001*[#  27]+0.001*[#  17]
          
    |psi|^2 = 0.987
==== e(  30) =    -2.46057 eV ==== 
     psi = 0.335*[#  31]+0.238*[#  23]+0.156*[#   9]+0.060*[#  25]+0.050*[#  11]
          +0.039*[#  28]+0.015*[#  32]+0.013*[#  26]+0.011*[#  18]+0.011*[#  16]
          +0.009*[#  17]+0.008*[#  27]+0.008*[#  12]+0.007*[#  34]+0.006*[#  33]
          +0.003*[#  19]+0.003*[#  35]+0.003*[#  29]+0.001*[#  10]+0.002*[#  13]
          
    |psi|^2 = 0.981
==== e(  31) =    -2.33568 eV ==== 
     psi = 0.349*[#  34]+0.170*[#  24]+0.121*[#  27]+0.091*[#  14]+0.077*[#  26]
          +0.061*[#  16]+0.026*[#  35]+0.016*[#  33]+0.012*[#  15]+0.011*[#  31]
          +0.009*[#  11]+0.009*[#  13]+0.006*[#  23]+0.006*[#  30]+0.006*[#  32]
          +0.005*[#  10]+0.004*[#  12]+0.004*[#   9]+0.002*[#  18]+0.002*[#  20]
          
    |psi|^2 = 0.990
==== e(  32) =    -1.96612 eV ==== 
     psi = 0.393*[#  26]+0.215*[#  34]+0.105*[#  15]+0.069*[#  32]+0.063*[#  35]
          +0.053*[#  13]+0.035*[#  10]+0.024*[#  14]+0.011*[#  16]+0.006*[#  18]
          +0.005*[#  27]+0.003*[#  23]+0.002*[#  11]+0.002*[#  22]+0.001*[#  33]
          
    |psi|^2 = 0.990
==== e(  33) =    -1.26088 eV ==== 
     psi = 0.240*[#   9]+0.145*[#  23]+0.126*[#  17]+0.112*[#  36]+0.089*[#  12]
          +0.081*[#  33]+0.043*[#  28]+0.041*[#  10]+0.040*[#  18]+0.021*[#  25]
          +0.010*[#  13]+0.009*[#  24]+0.008*[#  15]+0.006*[#  21]+0.003*[#  32]
          +0.002*[#  31]+0.002*[#  29]+0.001*[#  27]
    |psi|^2 = 0.982
==== e(  34) =    -0.91933 eV ==== 
     psi = 0.259*[#  31]+0.157*[#  18]+0.154*[#  10]+0.137*[#  23]+0.058*[#  28]
          +0.047*[#   9]+0.045*[#  13]+0.043*[#  25]+0.032*[#  15]+0.026*[#  17]
          +0.018*[#  12]+0.006*[#  36]+0.002*[#  29]+0.001*[#  33]
    |psi|^2 = 0.985
==== e(  35) =     2.19181 eV ==== 
     psi = 0.313*[#  20]+0.036*[#  22]+0.036*[#  30]+0.028*[#  25]+0.028*[#  33]
          +0.012*[#  34]+0.010*[#  28]+0.010*[#  36]+0.009*[#  26]+0.005*[#  27]
          +0.004*[#  35]+0.003*[#  24]+0.003*[#  32]
    |psi|^2 = 0.497
==== e(  36) =     2.31406 eV ==== 
     psi = 0.278*[#  19]+0.033*[#  29]+0.032*[#  21]+0.025*[#  32]+0.025*[#  24]
          +0.010*[#  23]+0.009*[#  27]+0.009*[#  35]+0.009*[#  31]+0.004*[#  36]
          +0.004*[#  28]+0.003*[#  33]+0.003*[#  25]
    |psi|^2 = 0.446
==== e(  37) =     2.80338 eV ==== 
 
    |psi|^2 = 0.002
==== e(  38) =     2.88177 eV ==== 
 
    |psi|^2 = 0.004
==== e(  39) =     3.15028 eV ==== 
     psi = 0.098*[#  20]+0.015*[#  22]+0.013*[#  27]+0.009*[#  25]+0.008*[#  30]
          +0.006*[#  33]+0.005*[#  26]+0.005*[#  28]+0.004*[#  19]+0.004*[#  24]
          +0.002*[#  34]+0.001*[#  12]+0.001*[#  32]+0.001*[#  36]
    |psi|^2 = 0.176
==== e(  40) =     3.18637 eV ==== 
     psi = 0.080*[#  20]+0.019*[#  34]+0.013*[#  30]+0.012*[#  19]+0.009*[#  36]
          +0.006*[#  22]+0.005*[#  25]+0.004*[#  35]+0.004*[#  33]+0.002*[#  29]
          +0.002*[#  24]+0.001*[#  12]
    |psi|^2 = 0.162

 k =   0.0833250000  0.1443231335  0.0000000000
==== e(   1) =  -105.88906 eV ==== 
     psi = 0.995*[#   2]+0.001*[#  25]+0.001*[#  33]
    |psi|^2 = 1.000
==== e(   2) =  -104.55584 eV ==== 
     psi = 0.995*[#   1]+0.001*[#  24]+0.001*[#  32]
    |psi|^2 = 1.000
==== e(   3) =   -67.47821 eV ==== 
     psi = 0.947*[#   7]+0.052*[#   4]
    |psi|^2 = 1.000
==== e(   4) =   -67.10412 eV ==== 
     psi = 0.886*[#   8]+0.114*[#   5]
    |psi|^2 = 1.000
==== e(   5) =   -65.59484 eV ==== 
     psi = 0.999*[#   6]
    |psi|^2 = 1.000
==== e(   6) =   -64.91126 eV ==== 
     psi = 0.886*[#   5]+0.114*[#   8]
    |psi|^2 = 1.000
==== e(   7) =   -64.48887 eV ==== 
     psi = 0.947*[#   4]+0.052*[#   7]
    |psi|^2 = 1.000
==== e(   8) =   -64.16909 eV ==== 
     psi = 0.999*[#   3]
    |psi|^2 = 1.000
==== e(   9) =   -15.63486 eV ==== 
     psi = 0.378*[#  22]+0.378*[#  30]+0.225*[#  20]+0.003*[#  25]+0.003*[#  33]
          +0.002*[#  26]+0.002*[#  34]+0.001*[#  28]+0.001*[#  36]+0.001*[#  35]
          
    |psi|^2 = 1.000
==== e(  10) =   -15.41845 eV ==== 
     psi = 0.375*[#  21]+0.375*[#  29]+0.230*[#  19]+0.003*[#  24]+0.003*[#  32]
          +0.002*[#  31]+0.002*[#  23]+0.002*[#  27]+0.002*[#  35]+0.001*[#  28]
          
    |psi|^2 = 1.000
==== e(  11) =   -14.76828 eV ==== 
     psi = 0.491*[#  22]+0.491*[#  30]+0.002*[#  34]+0.002*[#  25]+0.002*[#  26]
          +0.002*[#  33]+0.001*[#  13]
    |psi|^2 = 0.998
==== e(  12) =   -14.52280 eV ==== 
     psi = 0.491*[#  21]+0.491*[#  29]+0.002*[#  23]+0.002*[#  24]+0.002*[#  31]
          +0.002*[#  32]+0.001*[#  10]+0.001*[#  36]
    |psi|^2 = 0.997
==== e(  13) =    -6.74689 eV ==== 
     psi = 0.192*[#  33]+0.192*[#  25]+0.181*[#  36]+0.181*[#  28]+0.083*[#  20]
          +0.055*[#  12]+0.036*[#  22]+0.036*[#  30]+0.027*[#  17]+0.002*[#   2]
          +0.002*[#   9]+0.002*[#  27]+0.002*[#  34]+0.001*[#  26]+0.001*[#  35]
          
    |psi|^2 = 0.995
==== e(  14) =    -6.59312 eV ==== 
     psi = 0.229*[#  35]+0.228*[#  27]+0.140*[#  24]+0.140*[#  32]+0.077*[#  19]
          +0.069*[#  11]+0.035*[#  21]+0.035*[#  29]+0.025*[#  14]+0.002*[#  25]
          +0.002*[#  16]+0.002*[#  33]+0.002*[#   1]+0.002*[#  23]+0.001*[#  31]
          
    |psi|^2 = 0.994
==== e(  15) =    -5.93078 eV ==== 
     psi = 0.200*[#  14]+0.156*[#  16]+0.102*[#  24]+0.095*[#  32]+0.083*[#  15]
          +0.052*[#  13]+0.049*[#  34]+0.041*[#  11]+0.035*[#  27]+0.029*[#  26]
          +0.025*[#  28]+0.024*[#  36]+0.022*[#  10]+0.022*[#  35]+0.015*[#  25]
          +0.014*[#  33]+0.012*[#  18]+0.009*[#  19]+0.004*[#  21]+0.004*[#  29]
          
    |psi|^2 = 0.993
==== e(  16) =    -5.70662 eV ==== 
     psi = 0.227*[#  15]+0.211*[#  13]+0.100*[#  26]+0.093*[#  16]+0.076*[#  14]
          +0.056*[#  18]+0.056*[#  34]+0.044*[#  10]+0.036*[#  32]+0.033*[#  35]
          +0.031*[#  11]+0.020*[#  24]+0.002*[#  33]+0.002*[#  19]+0.002*[#  25]
          +0.002*[#  28]
    |psi|^2 = 0.995
==== e(  17) =    -5.12087 eV ==== 
     psi = 0.175*[#   9]+0.116*[#  28]+0.113*[#  36]+0.089*[#  25]+0.073*[#  33]
          +0.071*[#  27]+0.063*[#  35]+0.058*[#  31]+0.051*[#  18]+0.045*[#  23]
          +0.039*[#  17]+0.022*[#  32]+0.020*[#  13]+0.015*[#  24]+0.011*[#  10]
          +0.009*[#  12]+0.005*[#  34]+0.004*[#  20]+0.002*[#  30]+0.002*[#  22]
          +0.001*[#  29]+0.001*[#  21]
    |psi|^2 = 0.987
==== e(  18) =    -4.61702 eV ==== 
     psi = 0.193*[#  27]+0.150*[#  13]+0.136*[#  35]+0.094*[#  17]+0.086*[#  15]
          +0.062*[#  34]+0.046*[#  12]+0.032*[#  10]+0.029*[#  33]+0.029*[#  24]
          +0.028*[#  18]+0.022*[#  28]+0.020*[#   9]+0.016*[#  20]+0.011*[#  25]
          +0.010*[#  32]+0.008*[#  30]+0.005*[#  14]+0.004*[#  36]+0.004*[#  22]
          
    |psi|^2 = 0.985
==== e(  19) =    -4.53073 eV ==== 
     psi = 0.343*[#  18]+0.169*[#  23]+0.146*[#  31]+0.069*[#  36]+0.054*[#   9]
          +0.052*[#  15]+0.032*[#  17]+0.022*[#  33]+0.022*[#  25]+0.016*[#  10]
          +0.016*[#  28]+0.013*[#  24]+0.011*[#  16]+0.010*[#  32]+0.003*[#  12]
          +0.002*[#  13]+0.002*[#  19]+0.002*[#  26]
    |psi|^2 = 0.986
==== e(  20) =    -4.42995 eV ==== 
     psi = 0.331*[#  16]+0.159*[#  14]+0.123*[#  11]+0.062*[#  28]+0.056*[#  13]
          +0.055*[#  26]+0.053*[#  34]+0.026*[#  36]+0.020*[#  12]+0.018*[#  10]
          +0.018*[#  35]+0.016*[#  31]+0.012*[#  24]+0.009*[#  27]+0.005*[#  22]
          +0.005*[#  20]+0.005*[#  32]+0.004*[#  19]+0.002*[#  17]+0.002*[#   9]
          +0.001*[#  29]+0.001*[#  33]+0.001*[#  21]
    |psi|^2 = 0.987
==== e(  21) =    -4.26272 eV ==== 
     psi = 0.296*[#  36]+0.278*[#  28]+0.087*[#  11]+0.083*[#  15]+0.035*[#  14]
          +0.029*[#  10]+0.027*[#  23]+0.021*[#  13]+0.019*[#  26]+0.019*[#  32]
          +0.017*[#  24]+0.017*[#  31]+0.016*[#  19]+0.016*[#  17]+0.006*[#  21]
          +0.005*[#  29]+0.003*[#  33]+0.002*[#  27]+0.001*[#  16]+0.001*[#  35]
          +0.001*[#  20]
    |psi|^2 = 0.984
==== e(  22) =    -4.01865 eV ==== 
     psi = 0.202*[#  13]+0.172*[#  12]+0.142*[#  17]+0.097*[#  15]+0.083*[#  14]
          +0.057*[#  10]+0.045*[#  16]+0.032*[#  35]+0.031*[#  11]+0.019*[#  20]
          +0.019*[#  27]+0.013*[#  18]+0.013*[#  36]+0.010*[#  23]+0.009*[#  31]
          +0.007*[#  34]+0.007*[#   9]+0.007*[#  33]+0.006*[#  22]+0.005*[#  25]
          +0.005*[#  30]+0.004*[#  26]+0.003*[#  28]+0.002*[#  32]
    |psi|^2 = 0.990
==== e(  23) =    -3.68212 eV ==== 
     psi = 0.306*[#  17]+0.132*[#  27]+0.101*[#  31]+0.086*[#  35]+0.080*[#  33]
          +0.067*[#   9]+0.057*[#  13]+0.054*[#  15]+0.023*[#  23]+0.017*[#  11]
          +0.014*[#  28]+0.010*[#  16]+0.009*[#  32]+0.009*[#  36]+0.005*[#  19]
          +0.004*[#  24]+0.002*[#  29]+0.002*[#  12]+0.002*[#  21]+0.002*[#  26]
          +0.001*[#  10]
    |psi|^2 = 0.986
==== e(  24) =    -3.56303 eV ==== 
     psi = 0.277*[#  12]+0.143*[#  25]+0.132*[#  23]+0.123*[#  35]+0.041*[#  11]
          +0.040*[#  27]+0.037*[#  36]+0.031*[#  13]+0.029*[#  31]+0.026*[#  28]
          +0.024*[#  24]+0.016*[#  26]+0.013*[#  33]+0.011*[#   9]+0.009*[#  19]
          +0.009*[#  16]+0.004*[#  29]+0.003*[#  15]+0.003*[#  32]+0.002*[#  14]
          +0.002*[#  17]+0.002*[#  34]+0.002*[#  21]+0.002*[#  20]+0.002*[#  10]
          
    |psi|^2 = 0.986
==== e(  25) =    -3.40069 eV ==== 
     psi = 0.276*[#  10]+0.224*[#  33]+0.146*[#  25]+0.090*[#  12]+0.057*[#  18]
          +0.032*[#   9]+0.029*[#  17]+0.027*[#  23]+0.021*[#  15]+0.021*[#  27]
          +0.014*[#  28]+0.011*[#  34]+0.010*[#  13]+0.009*[#  36]+0.006*[#  24]
          +0.003*[#  26]+0.003*[#  32]
    |psi|^2 = 0.985
==== e(  26) =    -3.25901 eV ==== 
     psi = 0.176*[#  11]+0.128*[#  16]+0.113*[#  17]+0.099*[#   9]+0.082*[#  10]
          +0.077*[#  18]+0.052*[#  14]+0.036*[#  26]+0.033*[#  34]+0.026*[#  15]
          +0.025*[#  35]+0.021*[#  24]+0.018*[#  32]+0.015*[#  12]+0.014*[#  25]
          +0.012*[#  19]+0.012*[#  28]+0.011*[#  13]+0.009*[#  27]+0.008*[#  33]
          +0.004*[#  23]+0.003*[#  21]+0.003*[#  20]+0.003*[#  36]+0.002*[#  22]
          +0.002*[#  29]+0.001*[#  31]
    |psi|^2 = 0.985
==== e(  27) =    -3.12836 eV ==== 
     psi = 0.212*[#  24]+0.161*[#  12]+0.110*[#  14]+0.109*[#  34]+0.071*[#  26]
          +0.048*[#  10]+0.040*[#  11]+0.039*[#  35]+0.027*[#  32]+0.022*[#  15]
          +0.020*[#  28]+0.018*[#   9]+0.018*[#  23]+0.014*[#  13]+0.013*[#  18]
          +0.013*[#  33]+0.012*[#  31]+0.009*[#  27]+0.006*[#  20]+0.005*[#  36]
          +0.005*[#  19]+0.004*[#  22]+0.002*[#  16]+0.002*[#  25]+0.002*[#  29]
          +0.001*[#  30]
    |psi|^2 = 0.985
==== e(  28) =    -3.02371 eV ==== 
     psi = 0.348*[#  32]+0.141*[#  14]+0.105*[#  26]+0.088*[#  24]+0.056*[#  27]
          +0.053*[#  35]+0.045*[#  10]+0.040*[#  15]+0.022*[#  18]+0.020*[#  11]
          +0.020*[#  36]+0.009*[#  34]+0.009*[#  31]+0.006*[#  33]+0.006*[#   9]
          +0.004*[#  30]+0.003*[#  17]+0.003*[#  28]+0.002*[#  16]
    |psi|^2 = 0.984
==== e(  29) =    -2.77668 eV ==== 
     psi = 0.241*[#  11]+0.138*[#  25]+0.107*[#  33]+0.098*[#  16]+0.085*[#  18]
          +0.046*[#  32]+0.042*[#  10]+0.042*[#  15]+0.033*[#  23]+0.033*[#  26]
          +0.030*[#  36]+0.028*[#  28]+0.019*[#  13]+0.012*[#  31]+0.010*[#  14]
          +0.006*[#  27]+0.006*[#  34]+0.005*[#  35]+0.004*[#  24]+0.002*[#  17]
          
    |psi|^2 = 0.988
==== e(  30) =    -2.52925 eV ==== 
     psi = 0.291*[#  31]+0.225*[#   9]+0.168*[#  23]+0.079*[#  25]+0.048*[#  11]
          +0.045*[#  28]+0.024*[#  16]+0.022*[#  18]+0.022*[#  32]+0.014*[#  12]
          +0.010*[#  17]+0.007*[#  13]+0.006*[#  33]+0.005*[#  10]+0.005*[#  26]
          +0.002*[#  29]+0.002*[#  34]+0.002*[#  19]+0.002*[#  35]+0.002*[#  24]
          
    |psi|^2 = 0.982
==== e(  31) =    -2.40484 eV ==== 
     psi = 0.384*[#  34]+0.188*[#  24]+0.103*[#  27]+0.084*[#  26]+0.055*[#  14]
          +0.053*[#  16]+0.032*[#  33]+0.017*[#  11]+0.017*[#  13]+0.016*[#  15]
          +0.009*[#  18]+0.007*[#  30]+0.005*[#  32]+0.005*[#  10]+0.005*[#  35]
          +0.003*[#  25]+0.002*[#  12]+0.002*[#  17]+0.002*[#  20]
    |psi|^2 = 0.989
==== e(  32) =    -2.08581 eV ==== 
     psi = 0.395*[#  26]+0.145*[#  34]+0.096*[#  32]+0.090*[#  15]+0.084*[#  35]
          +0.055*[#  13]+0.036*[#  14]+0.029*[#  10]+0.021*[#  16]+0.010*[#  27]
          +0.006*[#  18]+0.005*[#  23]+0.004*[#  11]+0.002*[#  12]+0.002*[#  22]
          +0.002*[#  24]+0.002*[#  33]+0.001*[#  28]
    |psi|^2 = 0.988
==== e(  33) =    -1.33547 eV ==== 
     psi = 0.199*[#   9]+0.173*[#  23]+0.124*[#  17]+0.098*[#  36]+0.088*[#  12]
          +0.079*[#  33]+0.070*[#  10]+0.056*[#  18]+0.017*[#  28]+0.016*[#  24]
          +0.014*[#  13]+0.013*[#  15]+0.008*[#  21]+0.008*[#  32]+0.006*[#  25]
          +0.004*[#  31]+0.003*[#  29]+0.003*[#  27]
    |psi|^2 = 0.982
==== e(  34) =    -1.00970 eV ==== 
     psi = 0.249*[#  31]+0.151*[#  10]+0.135*[#  18]+0.091*[#  23]+0.074*[#  28]
          +0.066*[#   9]+0.056*[#  25]+0.042*[#  17]+0.039*[#  13]+0.031*[#  15]
          +0.029*[#  12]+0.009*[#  36]+0.002*[#  33]+0.002*[#  29]+0.001*[#  32]
          
    |psi|^2 = 0.982
==== e(  35) =     2.36144 eV ==== 
     psi = 0.293*[#  20]+0.030*[#  22]+0.030*[#  30]+0.024*[#  25]+0.024*[#  33]
          +0.015*[#  34]+0.010*[#  26]+0.009*[#  28]+0.009*[#  36]+0.007*[#  27]
          +0.005*[#  24]+0.004*[#  35]+0.003*[#  32]
    |psi|^2 = 0.464
==== e(  36) =     2.48279 eV ==== 
     psi = 0.250*[#  19]+0.026*[#  29]+0.026*[#  21]+0.021*[#  32]+0.021*[#  24]
          +0.013*[#  23]+0.010*[#  31]+0.008*[#  35]+0.008*[#  27]+0.005*[#  36]
          +0.004*[#  28]+0.004*[#  33]+0.003*[#  25]
    |psi|^2 = 0.399
==== e(  37) =     2.86729 eV ==== 
 
    |psi|^2 = 0.003
==== e(  38) =     2.94754 eV ==== 
     psi = 0.003*[#  20]
    |psi|^2 = 0.009
==== e(  39) =     3.10119 eV ==== 
     psi = 0.184*[#  20]+0.027*[#  34]+0.019*[#  22]+0.017*[#  30]+0.014*[#  27]
          +0.014*[#  25]+0.012*[#  33]+0.009*[#  24]+0.005*[#  36]+0.005*[#  26]
          +0.005*[#  28]+0.002*[#  12]+0.002*[#  32]+0.002*[#  35]+0.001*[#  17]
          
    |psi|^2 = 0.321
==== e(  40) =     3.25953 eV ==== 
     psi = 0.205*[#  19]+0.028*[#  23]+0.021*[#  29]+0.019*[#  21]+0.017*[#  36]
          +0.016*[#  32]+0.013*[#  24]+0.009*[#  33]+0.007*[#  27]+0.007*[#  35]
          +0.006*[#  31]+0.003*[#  11]+0.002*[#  28]+0.002*[#  25]+0.001*[#  16]
          
    |psi|^2 = 0.360

 k =   0.0999900000  0.1731877602  0.0000000000
==== e(   1) =  -105.88906 eV ==== 
     psi = 0.995*[#   2]+0.001*[#  25]+0.001*[#  33]
    |psi|^2 = 1.000
==== e(   2) =  -104.55584 eV ==== 
     psi = 0.995*[#   1]+0.001*[#  24]+0.001*[#  32]
    |psi|^2 = 1.000
==== e(   3) =   -67.47823 eV ==== 
     psi = 0.947*[#   7]+0.052*[#   4]
    |psi|^2 = 1.000
==== e(   4) =   -67.10412 eV ==== 
     psi = 0.886*[#   8]+0.114*[#   5]
    |psi|^2 = 1.000
==== e(   5) =   -65.59487 eV ==== 
     psi = 0.999*[#   6]
    |psi|^2 = 1.000
==== e(   6) =   -64.91128 eV ==== 
     psi = 0.886*[#   5]+0.114*[#   8]
    |psi|^2 = 1.000
==== e(   7) =   -64.48887 eV ==== 
     psi = 0.947*[#   4]+0.052*[#   7]
    |psi|^2 = 1.000
==== e(   8) =   -64.16912 eV ==== 
     psi = 0.999*[#   3]
    |psi|^2 = 1.000
==== e(   9) =   -15.56859 eV ==== 
     psi = 0.384*[#  30]+0.384*[#  22]+0.211*[#  20]+0.003*[#  25]+0.003*[#  33]
          +0.003*[#  26]+0.002*[#  34]+0.002*[#  35]+0.001*[#  28]+0.001*[#  36]
          +0.001*[#  27]+0.001*[#  32]
    |psi|^2 = 1.000
==== e(  10) =   -15.35116 eV ==== 
     psi = 0.381*[#  21]+0.381*[#  29]+0.215*[#  19]+0.004*[#  24]+0.004*[#  32]
          +0.003*[#  31]+0.002*[#  23]+0.002*[#  27]+0.002*[#  28]+0.002*[#  35]
          +0.001*[#  36]+0.001*[#  25]
    |psi|^2 = 0.999
==== e(  11) =   -14.73454 eV ==== 
     psi = 0.490*[#  22]+0.490*[#  30]+0.002*[#  34]+0.002*[#  13]+0.002*[#  26]
          +0.001*[#  16]+0.001*[#  25]+0.001*[#  27]+0.001*[#  33]+0.001*[#  14]
          
    |psi|^2 = 0.998
==== e(  12) =   -14.48798 eV ==== 
     psi = 0.490*[#  21]+0.490*[#  29]+0.002*[#  23]+0.002*[#  31]+0.002*[#  10]
          +0.001*[#  24]+0.001*[#  32]+0.001*[#  36]+0.001*[#  17]+0.001*[#  28]
          
    |psi|^2 = 0.998
==== e(  13) =    -6.69287 eV ==== 
     psi = 0.185*[#  36]+0.184*[#  28]+0.183*[#  33]+0.183*[#  25]+0.089*[#  20]
          +0.051*[#  12]+0.037*[#  22]+0.037*[#  30]+0.024*[#  17]+0.004*[#  27]
          +0.003*[#  34]+0.003*[#  26]+0.003*[#  35]+0.002*[#   2]+0.002*[#   9]
          +0.002*[#  32]+0.002*[#  24]
    |psi|^2 = 0.995
==== e(  14) =    -6.55068 eV ==== 
     psi = 0.241*[#  35]+0.239*[#  27]+0.122*[#  24]+0.121*[#  32]+0.080*[#  19]
          +0.068*[#  11]+0.035*[#  21]+0.035*[#  29]+0.031*[#  14]+0.005*[#  25]
          +0.004*[#  33]+0.003*[#  23]+0.003*[#  31]+0.002*[#   1]+0.002*[#  15]
          +0.001*[#  34]+0.001*[#  26]+0.001*[#  36]
    |psi|^2 = 0.994
==== e(  15) =    -5.99191 eV ==== 
     psi = 0.171*[#  14]+0.126*[#  16]+0.110*[#  24]+0.102*[#  32]+0.091*[#  15]
          +0.059*[#  34]+0.054*[#  13]+0.038*[#  26]+0.035*[#  28]+0.034*[#  36]
          +0.029*[#  11]+0.029*[#  27]+0.026*[#  10]+0.017*[#  25]+0.016*[#  33]
          +0.016*[#  35]+0.014*[#  19]+0.012*[#  18]+0.005*[#  21]+0.005*[#  29]
          +0.002*[#  23]
    |psi|^2 = 0.993
==== e(  16) =    -5.71340 eV ==== 
     psi = 0.209*[#  13]+0.198*[#  15]+0.110*[#  16]+0.103*[#  26]+0.082*[#  14]
          +0.052*[#  18]+0.046*[#  35]+0.044*[#  32]+0.041*[#  34]+0.038*[#  11]
          +0.036*[#  10]+0.022*[#  24]+0.003*[#  19]+0.002*[#  28]+0.002*[#  33]
          +0.001*[#  25]+0.001*[#  29]
    |psi|^2 = 0.995
==== e(  17) =    -5.27796 eV ==== 
     psi = 0.144*[#   9]+0.114*[#  28]+0.106*[#  36]+0.089*[#  27]+0.087*[#  25]
          +0.072*[#  31]+0.070*[#  35]+0.064*[#  33]+0.055*[#  18]+0.053*[#  23]
          +0.025*[#  32]+0.024*[#  17]+0.018*[#  13]+0.013*[#  10]+0.011*[#  24]
          +0.011*[#  34]+0.009*[#  12]+0.007*[#  20]+0.003*[#  30]+0.003*[#  15]
          +0.002*[#  22]+0.001*[#  14]+0.001*[#  29]+0.001*[#  21]
    |psi|^2 = 0.986
==== e(  18) =    -4.78740 eV ==== 
     psi = 0.194*[#  27]+0.107*[#  35]+0.101*[#  34]+0.088*[#  17]+0.076*[#  15]
          +0.075*[#  13]+0.062*[#  24]+0.060*[#  12]+0.047*[#  18]+0.037*[#  33]
          +0.023*[#  20]+0.018*[#  25]+0.017*[#  32]+0.015*[#  10]+0.014*[#   9]
          +0.011*[#  28]+0.010*[#  30]+0.009*[#  14]+0.006*[#  31]+0.005*[#  22]
          +0.005*[#  23]+0.001*[#  36]
    |psi|^2 = 0.983
==== e(  19) =    -4.58014 eV ==== 
     psi = 0.189*[#  18]+0.189*[#  16]+0.169*[#  36]+0.135*[#  23]+0.029*[#  33]
          +0.029*[#  26]+0.027*[#  14]+0.026*[#  31]+0.025*[#   9]+0.025*[#  17]
          +0.023*[#  34]+0.018*[#  28]+0.018*[#  11]+0.014*[#  19]+0.012*[#  35]
          +0.009*[#  13]+0.007*[#  25]+0.007*[#  27]+0.006*[#  15]+0.005*[#  21]
          +0.005*[#  32]+0.004*[#  12]+0.004*[#  24]+0.003*[#  29]+0.002*[#  22]
          
    |psi|^2 = 0.982
==== e(  20) =    -4.52931 eV ==== 
     psi = 0.133*[#  16]+0.120*[#  31]+0.097*[#  28]+0.087*[#  13]+0.076*[#  18]
          +0.064*[#  23]+0.062*[#  11]+0.053*[#  14]+0.047*[#  10]+0.039*[#   9]
          +0.038*[#  26]+0.030*[#  34]+0.028*[#  35]+0.018*[#  33]+0.017*[#  17]
          +0.017*[#  25]+0.017*[#  24]+0.016*[#  12]+0.015*[#  15]+0.004*[#  36]
          +0.004*[#  22]+0.004*[#  20]
    |psi|^2 = 0.987
==== e(  21) =    -4.43734 eV ==== 
     psi = 0.203*[#  28]+0.180*[#  36]+0.128*[#  11]+0.084*[#  15]+0.047*[#  31]
          +0.045*[#  14]+0.040*[#  26]+0.039*[#  32]+0.032*[#  10]+0.032*[#  17]
          +0.029*[#  13]+0.024*[#  24]+0.019*[#  23]+0.018*[#  18]+0.015*[#  19]
          +0.015*[#  25]+0.011*[#  33]+0.006*[#  21]+0.005*[#  29]+0.004*[#  35]
          +0.003*[#  34]+0.002*[#  16]+0.002*[#  20]+0.001*[#  22]
    |psi|^2 = 0.985
==== e(  22) =    -4.02461 eV ==== 
     psi = 0.202*[#  13]+0.147*[#  12]+0.121*[#  15]+0.117*[#  17]+0.110*[#  14]
          +0.063*[#  16]+0.063*[#  10]+0.038*[#  11]+0.019*[#  35]+0.019*[#  18]
          +0.017*[#  20]+0.009*[#  23]+0.008*[#  36]+0.008*[#  27]+0.007*[#   9]
          +0.006*[#  25]+0.006*[#  31]+0.006*[#  34]+0.006*[#  33]+0.005*[#  22]
          +0.004*[#  30]+0.003*[#  26]+0.003*[#  32]+0.002*[#  28]
    |psi|^2 = 0.991
==== e(  23) =    -3.75866 eV ==== 
     psi = 0.282*[#  17]+0.142*[#  31]+0.098*[#  23]+0.065*[#  27]+0.060*[#  15]
          +0.055*[#  33]+0.053*[#   9]+0.051*[#  28]+0.048*[#  36]+0.028*[#  13]
          +0.027*[#  12]+0.023*[#  11]+0.010*[#  35]+0.009*[#  19]+0.008*[#  16]
          +0.008*[#  10]+0.005*[#  32]+0.004*[#  29]+0.004*[#  25]+0.002*[#  21]
          
    |psi|^2 = 0.983
==== e(  24) =    -3.57751 eV ==== 
     psi = 0.237*[#  12]+0.199*[#  35]+0.104*[#  25]+0.087*[#  23]+0.080*[#  27]
          +0.061*[#  13]+0.036*[#  17]+0.029*[#  15]+0.028*[#  26]+0.026*[#  24]
          +0.026*[#  36]+0.016*[#  28]+0.014*[#  10]+0.012*[#  14]+0.011*[#  11]
          +0.007*[#  34]+0.003*[#  18]+0.003*[#  19]+0.003*[#  33]+0.002*[#  32]
          +0.002*[#  20]+0.001*[#  29]
    |psi|^2 = 0.988
==== e(  25) =    -3.42935 eV ==== 
     psi = 0.240*[#  33]+0.198*[#  10]+0.133*[#  25]+0.086*[#  12]+0.054*[#  27]
          +0.050*[#  18]+0.026*[#  26]+0.026*[#  15]+0.025*[#  24]+0.024*[#  14]
          +0.021*[#  23]+0.020*[#  36]+0.017*[#  28]+0.015*[#  35]+0.013*[#  34]
          +0.010*[#   9]+0.010*[#  32]+0.007*[#  13]+0.003*[#  17]+0.001*[#  11]
          +0.001*[#  16]
    |psi|^2 = 0.983
==== e(  26) =    -3.30605 eV ==== 
     psi = 0.161*[#  14]+0.122*[#  17]+0.104*[#  16]+0.086*[#   9]+0.078*[#  11]
          +0.076*[#  34]+0.062*[#  26]+0.056*[#  25]+0.051*[#  35]+0.043*[#  24]
          +0.042*[#  28]+0.024*[#  18]+0.023*[#  33]+0.012*[#  15]+0.012*[#  32]
          +0.006*[#  19]+0.006*[#  31]+0.005*[#  22]+0.005*[#  27]+0.004*[#  20]
          +0.002*[#  10]+0.002*[#  13]+0.002*[#  21]
    |psi|^2 = 0.987
==== e(  27) =    -3.19769 eV ==== 
     psi = 0.176*[#  12]+0.155*[#  10]+0.099*[#  14]+0.091*[#  11]+0.086*[#  18]
          +0.067*[#   9]+0.065*[#  24]+0.037*[#  26]+0.030*[#  34]+0.029*[#  13]
          +0.023*[#  35]+0.022*[#  16]+0.021*[#  15]+0.015*[#  17]+0.015*[#  23]
          +0.011*[#  19]+0.009*[#  31]+0.009*[#  28]+0.007*[#  33]+0.005*[#  27]
          +0.004*[#  25]+0.002*[#  21]+0.002*[#  32]+0.002*[#  29]+0.002*[#  22]
          +0.001*[#  20]
    |psi|^2 = 0.986
==== e(  28) =    -3.12507 eV ==== 
     psi = 0.319*[#  32]+0.152*[#  24]+0.081*[#  14]+0.066*[#  15]+0.056*[#  27]
          +0.053*[#  34]+0.047*[#  10]+0.042*[#  36]+0.041*[#  26]+0.030*[#  11]
          +0.019*[#  12]+0.018*[#  31]+0.012*[#  23]+0.011*[#  18]+0.009*[#  25]
          +0.006*[#  30]+0.006*[#  28]+0.004*[#   9]+0.004*[#  35]+0.003*[#  17]
          +0.003*[#  20]+0.001*[#  16]+0.001*[#  33]
    |psi|^2 = 0.985
==== e(  29) =    -2.79630 eV ==== 
     psi = 0.295*[#  11]+0.110*[#  16]+0.106*[#  25]+0.105*[#  18]+0.079*[#  33]
          +0.039*[#  10]+0.039*[#  15]+0.035*[#  23]+0.034*[#  32]+0.027*[#  26]
          +0.024*[#  13]+0.022*[#  36]+0.018*[#  28]+0.014*[#  31]+0.011*[#  27]
          +0.009*[#  35]+0.006*[#  14]+0.006*[#  24]+0.005*[#  34]+0.003*[#  17]
          
    |psi|^2 = 0.989
==== e(  30) =    -2.60016 eV ==== 
     psi = 0.279*[#   9]+0.231*[#  31]+0.107*[#  23]+0.072*[#  25]+0.045*[#  28]
          +0.041*[#  16]+0.040*[#  11]+0.037*[#  34]+0.027*[#  18]+0.023*[#  13]
          +0.021*[#  12]+0.013*[#  32]+0.011*[#  24]+0.010*[#  17]+0.010*[#  10]
          +0.005*[#  35]+0.002*[#  27]+0.002*[#  29]+0.001*[#  19]+0.001*[#  33]
          
    |psi|^2 = 0.983
==== e(  31) =    -2.45090 eV ==== 
     psi = 0.336*[#  34]+0.183*[#  24]+0.079*[#  26]+0.075*[#  27]+0.055*[#  33]
          +0.042*[#  32]+0.039*[#  16]+0.030*[#  14]+0.029*[#  11]+0.022*[#  18]
          +0.022*[#  13]+0.020*[#  25]+0.017*[#  15]+0.011*[#  23]+0.007*[#  30]
          +0.006*[#   9]+0.006*[#  31]+0.004*[#  17]+0.003*[#  10]+0.001*[#  22]
          +0.001*[#  20]
    |psi|^2 = 0.989
==== e(  32) =    -2.21228 eV ==== 
     psi = 0.402*[#  26]+0.113*[#  32]+0.095*[#  35]+0.087*[#  34]+0.075*[#  15]
          +0.057*[#  13]+0.045*[#  14]+0.036*[#  16]+0.023*[#  10]+0.015*[#  27]
          +0.008*[#  23]+0.006*[#  24]+0.005*[#  11]+0.005*[#  12]+0.005*[#  18]
          +0.005*[#  33]+0.002*[#  22]+0.001*[#  28]
    |psi|^2 = 0.986
==== e(  33) =    -1.38254 eV ==== 
     psi = 0.176*[#  23]+0.164*[#   9]+0.121*[#  17]+0.101*[#  10]+0.087*[#  12]
          +0.084*[#  36]+0.075*[#  33]+0.066*[#  18]+0.027*[#  24]+0.019*[#  15]
          +0.016*[#  32]+0.016*[#  13]+0.009*[#  21]+0.006*[#  31]+0.005*[#  27]
          +0.004*[#  29]+0.003*[#  28]+0.002*[#  35]
    |psi|^2 = 0.983
==== e(  34) =    -1.10513 eV ==== 
     psi = 0.240*[#  31]+0.151*[#  10]+0.116*[#  18]+0.083*[#  28]+0.079*[#   9]
          +0.064*[#  25]+0.059*[#  17]+0.058*[#  23]+0.041*[#  12]+0.034*[#  13]
          +0.032*[#  15]+0.010*[#  36]+0.003*[#  33]+0.002*[#  29]+0.002*[#  24]
          +0.001*[#  32]
    |psi|^2 = 0.979
==== e(  35) =     2.53111 eV ==== 
     psi = 0.303*[#  20]+0.028*[#  22]+0.027*[#  30]+0.023*[#  25]+0.023*[#  33]
          +0.022*[#  34]+0.010*[#  26]+0.010*[#  27]+0.009*[#  28]+0.008*[#  36]
          +0.007*[#  24]+0.005*[#  35]+0.003*[#  32]
    |psi|^2 = 0.479
==== e(  36) =     2.65612 eV ==== 
     psi = 0.237*[#  19]+0.022*[#  29]+0.021*[#  21]+0.018*[#  24]+0.018*[#  32]
          +0.016*[#  23]+0.009*[#  31]+0.007*[#  35]+0.007*[#  36]+0.007*[#  27]
          +0.005*[#  33]+0.004*[#  28]+0.003*[#  25]
    |psi|^2 = 0.377
==== e(  37) =     2.93666 eV ==== 
     psi = 0.002*[#  20]
    |psi|^2 = 0.008
==== e(  38) =     2.96832 eV ==== 
     psi = 0.125*[#  20]+0.028*[#  34]+0.016*[#  27]+0.011*[#  22]+0.010*[#  30]
          +0.008*[#  24]+0.007*[#  25]+0.008*[#  33]+0.004*[#  28]+0.003*[#  36]
          +0.003*[#  26]+0.001*[#  12]+0.001*[#  17]
    |psi|^2 = 0.228
==== e(  39) =     3.03830 eV ==== 
     psi = 0.029*[#  20]+0.006*[#  34]+0.004*[#  24]+0.004*[#  25]+0.002*[#  22]
          +0.002*[#  30]+0.002*[#  27]+0.002*[#  33]+0.001*[#   9]+0.001*[#  36]
          
    |psi|^2 = 0.057
==== e(  40) =     3.16295 eV ==== 
     psi = 0.206*[#  19]+0.042*[#  23]+0.022*[#  36]+0.018*[#  29]+0.016*[#  21]
          +0.016*[#  32]+0.014*[#  33]+0.013*[#  24]+0.006*[#  27]+0.006*[#  35]
          +0.004*[#  31]+0.003*[#  11]+0.002*[#   9]+0.002*[#  16]+0.002*[#  18]
          +0.002*[#  25]+0.001*[#  28]
    |psi|^2 = 0.374

 k =   0.1166550000  0.2020523870  0.0000000000
==== e(   1) =  -105.88906 eV ==== 
     psi = 0.995*[#   2]
    |psi|^2 = 1.000
==== e(   2) =  -104.55584 eV ==== 
     psi = 0.995*[#   1]+0.001*[#  24]+0.001*[#  32]
    |psi|^2 = 1.000
==== e(   3) =   -67.47824 eV ==== 
     psi = 0.947*[#   7]+0.052*[#   4]
    |psi|^2 = 1.000
==== e(   4) =   -67.10413 eV ==== 
     psi = 0.886*[#   8]+0.114*[#   5]
    |psi|^2 = 1.000
==== e(   5) =   -65.59489 eV ==== 
     psi = 0.999*[#   6]
    |psi|^2 = 1.000
==== e(   6) =   -64.91129 eV ==== 
     psi = 0.886*[#   5]+0.114*[#   8]
    |psi|^2 = 1.000
==== e(   7) =   -64.48886 eV ==== 
     psi = 0.947*[#   4]+0.052*[#   7]
    |psi|^2 = 1.000
==== e(   8) =   -64.16915 eV ==== 
     psi = 0.999*[#   3]
    |psi|^2 = 1.000
==== e(   9) =   -15.49281 eV ==== 
     psi = 0.391*[#  30]+0.391*[#  22]+0.194*[#  20]+0.004*[#  26]+0.003*[#  25]
          +0.003*[#  33]+0.003*[#  34]+0.002*[#  35]+0.001*[#  27]+0.001*[#  28]
          +0.001*[#  36]+0.001*[#  32]
    |psi|^2 = 0.999
==== e(  10) =   -15.27416 eV ==== 
     psi = 0.388*[#  21]+0.388*[#  29]+0.198*[#  19]+0.004*[#  31]+0.004*[#  24]
          +0.004*[#  32]+0.003*[#  23]+0.002*[#  28]+0.002*[#  27]+0.002*[#  35]
          +0.001*[#  36]+0.001*[#  25]
    |psi|^2 = 0.999
==== e(  11) =   -14.69739 eV ==== 
     psi = 0.489*[#  22]+0.488*[#  30]+0.003*[#  34]+0.002*[#  13]+0.002*[#  26]
          +0.002*[#  16]+0.001*[#  14]+0.001*[#  27]+0.001*[#  11]+0.001*[#  15]
          +0.001*[#  25]+0.001*[#  33]+0.001*[#  35]
    |psi|^2 = 0.998
==== e(  12) =   -14.44963 eV ==== 
     psi = 0.489*[#  21]+0.489*[#  29]+0.003*[#  23]+0.002*[#  10]+0.002*[#  31]
          +0.002*[#  17]+0.002*[#  36]+0.001*[#   9]+0.001*[#  24]+0.001*[#  28]
          +0.001*[#  32]
    |psi|^2 = 0.998
==== e(  13) =    -6.64019 eV ==== 
     psi = 0.187*[#  36]+0.186*[#  28]+0.170*[#  33]+0.170*[#  25]+0.098*[#  20]
          +0.045*[#  12]+0.038*[#  30]+0.038*[#  22]+0.021*[#  17]+0.008*[#  27]
          +0.007*[#  34]+0.006*[#  26]+0.006*[#  35]+0.003*[#  24]+0.004*[#  32]
          +0.002*[#   9]+0.002*[#   2]
    |psi|^2 = 0.995
==== e(  14) =    -6.51358 eV ==== 
     psi = 0.254*[#  35]+0.251*[#  27]+0.096*[#  24]+0.095*[#  32]+0.082*[#  19]
          +0.065*[#  11]+0.040*[#  14]+0.034*[#  21]+0.034*[#  29]+0.008*[#  25]
          +0.008*[#  33]+0.005*[#  23]+0.005*[#  31]+0.004*[#  15]+0.003*[#  34]
          +0.003*[#  26]+0.002*[#   1]+0.002*[#  36]
    |psi|^2 = 0.994
==== e(  15) =    -6.05539 eV ==== 
     psi = 0.144*[#  14]+0.120*[#  24]+0.114*[#  32]+0.099*[#  16]+0.089*[#  15]
          +0.064*[#  34]+0.051*[#  13]+0.049*[#  28]+0.047*[#  36]+0.047*[#  26]
          +0.030*[#  10]+0.021*[#  19]+0.021*[#  27]+0.019*[#  11]+0.017*[#  25]
          +0.015*[#  33]+0.011*[#  35]+0.010*[#  18]+0.008*[#  21]+0.008*[#  29]
          +0.004*[#  23]+0.002*[#  31]
    |psi|^2 = 0.992
==== e(  16) =    -5.73012 eV ==== 
     psi = 0.217*[#  13]+0.168*[#  15]+0.116*[#  16]+0.108*[#  26]+0.076*[#  14]
          +0.070*[#  35]+0.046*[#  32]+0.044*[#  18]+0.043*[#  11]+0.027*[#  10]
          +0.024*[#  34]+0.021*[#  24]+0.007*[#  28]+0.005*[#  36]+0.004*[#  31]
          +0.004*[#  19]+0.003*[#   9]+0.003*[#  27]+0.003*[#  33]+0.002*[#  12]
          +0.002*[#  29]
    |psi|^2 = 0.995
==== e(  17) =    -5.43933 eV ==== 
     psi = 0.116*[#   9]+0.115*[#  28]+0.102*[#  27]+0.099*[#  36]+0.087*[#  25]
          +0.080*[#  31]+0.064*[#  35]+0.061*[#  18]+0.057*[#  23]+0.053*[#  33]
          +0.031*[#  32]+0.024*[#  34]+0.015*[#  10]+0.014*[#  17]+0.011*[#  15]
          +0.010*[#  20]+0.009*[#  12]+0.008*[#  13]+0.005*[#  24]+0.005*[#  14]
          +0.004*[#  16]+0.004*[#  30]+0.003*[#  22]+0.002*[#  26]+0.002*[#  21]
          +0.001*[#  29]
    |psi|^2 = 0.984
==== e(  18) =    -4.96874 eV ==== 
     psi = 0.182*[#  27]+0.134*[#  34]+0.090*[#  24]+0.083*[#  17]+0.072*[#  35]
          +0.069*[#  12]+0.062*[#  15]+0.057*[#  33]+0.041*[#  18]+0.032*[#  25]
          +0.032*[#  13]+0.026*[#  20]+0.019*[#  32]+0.016*[#  31]+0.015*[#   9]
          +0.011*[#  14]+0.010*[#  30]+0.009*[#  23]+0.009*[#  10]+0.006*[#  22]
          +0.005*[#  28]
    |psi|^2 = 0.981
==== e(  19) =    -4.73958 eV ==== 
     psi = 0.225*[#  16]+0.213*[#  36]+0.115*[#  23]+0.112*[#  28]+0.059*[#  18]
          +0.041*[#  33]+0.032*[#  35]+0.027*[#  19]+0.026*[#  34]+0.023*[#  26]
          +0.021*[#  13]+0.020*[#  10]+0.014*[#  24]+0.009*[#  21]+0.008*[#  12]
          +0.007*[#  29]+0.005*[#  14]+0.004*[#  27]+0.004*[#  15]+0.004*[#   9]
          +0.003*[#  31]+0.003*[#  25]+0.002*[#  11]+0.002*[#  22]
    |psi|^2 = 0.981
==== e(  20) =    -4.62242 eV ==== 
     psi = 0.193*[#  11]+0.128*[#  13]+0.108*[#  26]+0.100*[#  36]+0.087*[#  16]
          +0.066*[#  14]+0.058*[#  23]+0.043*[#  32]+0.042*[#  24]+0.038*[#  35]
          +0.029*[#  33]+0.029*[#  34]+0.015*[#  15]+0.008*[#   9]+0.006*[#  28]
          +0.006*[#  19]+0.006*[#  22]+0.006*[#  12]+0.005*[#  20]+0.002*[#  17]
          +0.002*[#  21]+0.001*[#  31]+0.001*[#  29]
    |psi|^2 = 0.980
==== e(  21) =    -4.55067 eV ==== 
     psi = 0.201*[#  31]+0.190*[#  18]+0.163*[#  28]+0.083*[#  17]+0.066*[#  15]
          +0.064*[#  23]+0.063*[#  10]+0.052*[#  25]+0.048*[#   9]+0.021*[#  32]
          +0.013*[#  33]+0.008*[#  11]+0.005*[#  13]+0.003*[#  26]+0.003*[#  12]
          +0.002*[#  27]+0.002*[#  35]
    |psi|^2 = 0.990
==== e(  22) =    -4.02480 eV ==== 
     psi = 0.192*[#  13]+0.139*[#  15]+0.128*[#  14]+0.122*[#  12]+0.107*[#  17]
          +0.075*[#  16]+0.071*[#  10]+0.041*[#  11]+0.023*[#  18]+0.015*[#  20]
          +0.013*[#  35]+0.011*[#  23]+0.008*[#  36]+0.007*[#   9]+0.007*[#  25]
          +0.006*[#  33]+0.005*[#  34]+0.004*[#  30]+0.004*[#  22]+0.003*[#  31]
          +0.003*[#  32]+0.003*[#  27]+0.002*[#  28]+0.001*[#  26]
    |psi|^2 = 0.991
==== e(  23) =    -3.86673 eV ==== 
     psi = 0.235*[#  17]+0.150*[#  31]+0.133*[#  23]+0.074*[#  28]+0.074*[#  36]
          +0.061*[#  15]+0.052*[#  12]+0.046*[#  27]+0.031*[#   9]+0.026*[#  10]
          +0.025*[#  33]+0.020*[#  13]+0.019*[#  11]+0.008*[#  19]+0.007*[#  14]
          +0.006*[#  32]+0.004*[#  29]+0.004*[#  34]+0.002*[#  16]+0.002*[#  25]
          +0.002*[#  26]+0.001*[#  18]+0.001*[#  21]
    |psi|^2 = 0.982
==== e(  24) =    -3.59527 eV ==== 
     psi = 0.215*[#  35]+0.133*[#  12]+0.108*[#  25]+0.080*[#  15]+0.074*[#  17]
          +0.065*[#  13]+0.060*[#  14]+0.055*[#  26]+0.045*[#  23]+0.039*[#  27]
          +0.037*[#  24]+0.020*[#  34]+0.019*[#  36]+0.011*[#  28]+0.008*[#  10]
          +0.005*[#  18]+0.003*[#  11]+0.002*[#  16]+0.002*[#  31]+0.002*[#  19]
          +0.001*[#  20]
    |psi|^2 = 0.987
==== e(  25) =    -3.50966 eV ==== 
     psi = 0.195*[#  33]+0.170*[#  12]+0.127*[#  27]+0.116*[#  14]+0.098*[#  10]
          +0.037*[#  18]+0.036*[#  23]+0.036*[#  26]+0.035*[#  25]+0.028*[#  32]
          +0.025*[#  24]+0.021*[#  15]+0.011*[#  34]+0.009*[#  16]+0.009*[#  17]
          +0.008*[#  35]+0.007*[#  11]+0.007*[#  36]+0.004*[#  28]+0.002*[#   9]
          +0.001*[#  31]
    |psi|^2 = 0.984
==== e(  26) =    -3.34475 eV ==== 
     psi = 0.139*[#  14]+0.134*[#  34]+0.107*[#  17]+0.104*[#  25]+0.077*[#  28]
[...]
          +0.007*[#  36]+0.006*[#  10]+0.005*[#  18]+0.005*[#  26]+0.005*[#  34]
          +0.002*[#  25]+0.002*[#  33]
    |psi|^2 = 0.989
==== e(  21) =    -4.04450 eV ==== 
     psi = 0.382*[#  28]+0.382*[#  36]+0.081*[#  25]+0.081*[#  33]+0.020*[#  14]
          +0.016*[#  15]+0.011*[#  11]+0.003*[#  10]+0.002*[#  24]+0.002*[#  32]
          +0.002*[#  22]+0.001*[#  27]+0.002*[#  30]+0.001*[#  35]
    |psi|^2 = 0.992
==== e(  22) =    -3.96729 eV ==== 
     psi = 0.233*[#  27]+0.233*[#  35]+0.144*[#  17]+0.137*[#  12]+0.104*[#  13]
          +0.034*[#  15]+0.017*[#  10]+0.013*[#  20]+0.012*[#  24]+0.012*[#  32]
          +0.011*[#  23]+0.011*[#  31]+0.004*[#  28]+0.004*[#  36]+0.004*[#  22]
          +0.004*[#  30]+0.003*[#  25]+0.003*[#  33]+0.002*[#   9]+0.002*[#  26]
          +0.002*[#  34]
    |psi|^2 = 0.990
==== e(  23) =    -3.79631 eV ==== 
     psi = 0.273*[#  17]+0.267*[#  12]+0.124*[#  27]+0.124*[#  35]+0.038*[#   9]
          +0.033*[#  25]+0.033*[#  33]+0.021*[#  24]+0.021*[#  32]+0.017*[#  13]
          +0.014*[#  20]+0.004*[#  15]+0.003*[#  23]+0.003*[#  31]+0.003*[#  22]
          +0.003*[#  30]+0.002*[#  10]+0.002*[#  26]+0.002*[#  34]+0.001*[#  18]
          
    |psi|^2 = 0.992
==== e(  24) =    -3.30251 eV ==== 
     psi = 0.232*[#  10]+0.214*[#  12]+0.138*[#  17]+0.136*[#   9]+0.063*[#  18]
          +0.045*[#  15]+0.035*[#  25]+0.035*[#  33]+0.022*[#  11]+0.016*[#  23]
          +0.016*[#  31]+0.015*[#  13]+0.009*[#  16]+0.002*[#  19]
    |psi|^2 = 0.985
==== e(  25) =    -3.29391 eV ==== 
     psi = 0.298*[#  10]+0.181*[#  12]+0.128*[#  17]+0.126*[#   9]+0.092*[#  18]
          +0.058*[#  15]+0.026*[#  25]+0.026*[#  33]+0.022*[#  13]+0.011*[#  23]
          +0.011*[#  31]+0.001*[#  24]+0.001*[#  32]
    |psi|^2 = 0.985
==== e(  26) =    -3.16094 eV ==== 
     psi = 0.525*[#  11]+0.242*[#  16]+0.029*[#  10]+0.025*[#  19]+0.025*[#  25]
          +0.025*[#  33]+0.013*[#  18]+0.009*[#  27]+0.009*[#  35]+0.009*[#  15]
          +0.008*[#  23]+0.008*[#  31]+0.008*[#   9]+0.008*[#  24]+0.008*[#  32]
          +0.007*[#  12]+0.006*[#  21]+0.006*[#  29]+0.006*[#  17]+0.003*[#  13]
          +0.002*[#  28]+0.002*[#  36]+0.001*[#  14]
    |psi|^2 = 0.986
==== e(  27) =    -2.90187 eV ==== 
     psi = 0.436*[#  24]+0.436*[#  32]+0.030*[#  27]+0.030*[#  35]+0.009*[#  12]
          +0.008*[#  26]+0.008*[#  34]+0.008*[#  15]+0.003*[#  18]+0.003*[#  28]
          +0.003*[#  36]+0.002*[#  17]+0.002*[#  20]+0.001*[#  13]+0.001*[#  21]
          +0.001*[#  29]+0.001*[#  23]+0.001*[#  25]+0.001*[#  31]+0.001*[#  33]
          
    |psi|^2 = 0.987
==== e(  28) =    -2.78369 eV ==== 
     psi = 0.314*[#  25]+0.314*[#  33]+0.087*[#  28]+0.087*[#  36]+0.056*[#  11]
          +0.027*[#  10]+0.024*[#  18]+0.024*[#  16]+0.011*[#  15]+0.009*[#  27]
          +0.009*[#  35]+0.005*[#  23]+0.005*[#  31]+0.005*[#  13]+0.001*[#  14]
          +0.001*[#  24]+0.001*[#  26]+0.001*[#  32]+0.001*[#  34]
    |psi|^2 = 0.985
==== e(  29) =    -2.57647 eV ==== 
     psi = 0.372*[#  26]+0.372*[#  34]+0.075*[#  14]+0.035*[#  27]+0.035*[#  35]
          +0.031*[#  24]+0.031*[#  32]+0.006*[#  12]+0.004*[#  25]+0.004*[#  33]
          +0.002*[#  16]+0.002*[#  23]+0.002*[#  31]+0.002*[#  20]+0.001*[#  11]
          
    |psi|^2 = 0.982
==== e(  30) =    -2.29094 eV ==== 
     psi = 0.402*[#  23]+0.402*[#  31]+0.032*[#   9]+0.020*[#  11]+0.020*[#  27]
          +0.020*[#  35]+0.019*[#  26]+0.019*[#  34]+0.016*[#  14]+0.005*[#  28]
          +0.005*[#  36]+0.004*[#  25]+0.004*[#  33]+0.003*[#  19]+0.002*[#  24]
          +0.002*[#  32]+0.002*[#  17]+0.001*[#  21]+0.001*[#  29]
    |psi|^2 = 0.980
==== e(  31) =    -2.20725 eV ==== 
     psi = 0.185*[#  14]+0.137*[#  27]+0.137*[#  35]+0.109*[#  24]+0.109*[#  32]
          +0.082*[#  26]+0.082*[#  34]+0.051*[#  16]+0.042*[#  23]+0.042*[#  31]
          +0.006*[#  11]+0.003*[#   9]+0.002*[#  15]+0.001*[#  25]+0.001*[#  33]
          +0.001*[#  12]+0.001*[#  19]
    |psi|^2 = 0.995
==== e(  32) =    -1.72273 eV ==== 
     psi = 0.374*[#  26]+0.374*[#  34]+0.129*[#  15]+0.047*[#  13]+0.042*[#  10]
          +0.007*[#  18]+0.005*[#  24]+0.005*[#  32]+0.004*[#  27]+0.004*[#  35]
          +0.002*[#  14]
    |psi|^2 = 0.994
==== e(  33) =    -1.09505 eV ==== 
     psi = 0.322*[#   9]+0.129*[#  28]+0.129*[#  36]+0.127*[#  17]+0.089*[#  12]
          +0.076*[#  25]+0.076*[#  33]+0.016*[#  23]+0.016*[#  31]+0.003*[#  18]
          +0.002*[#  10]+0.001*[#  20]
    |psi|^2 = 0.992
==== e(  34) =    -0.72613 eV ==== 
     psi = 0.265*[#  23]+0.265*[#  31]+0.196*[#  18]+0.154*[#  10]+0.055*[#  13]
          +0.031*[#  15]+0.004*[#  28]+0.004*[#  36]+0.004*[#   9]+0.003*[#  25]
          +0.003*[#  33]+0.002*[#  17]+0.001*[#  12]
    |psi|^2 = 0.990
==== e(  35) =     1.86734 eV ==== 
     psi = 0.377*[#  20]+0.052*[#  22]+0.052*[#  30]+0.037*[#  25]+0.037*[#  33]
          +0.012*[#  28]+0.012*[#  36]+0.003*[#  26]+0.003*[#  34]+0.001*[#  27]
          +0.001*[#  35]
    |psi|^2 = 0.592
==== e(  36) =     1.99430 eV ==== 
     psi = 0.349*[#  19]+0.049*[#  21]+0.049*[#  29]+0.035*[#  24]+0.035*[#  32]
          +0.012*[#  27]+0.012*[#  35]+0.003*[#  23]+0.003*[#  31]+0.001*[#  28]
          +0.001*[#  36]
    |psi|^2 = 0.554
==== e(  37) =     2.65593 eV ==== 
     psi = 0.001*[#  26]+0.001*[#  34]
    |psi|^2 = 0.009
==== e(  38) =     2.71659 eV ==== 
 
    |psi|^2 = 0.001
==== e(  39) =     2.76123 eV ==== 
     psi = 0.001*[#  23]+0.001*[#  31]
    |psi|^2 = 0.009
==== e(  40) =     2.79385 eV ==== 
 
    |psi|^2 = 0.006

 k =   0.0250000000  0.0144337567  0.0000000000
==== e(   1) =  -105.88906 eV ==== 
     psi = 0.996*[#   2]+0.001*[#  25]+0.001*[#  33]
    |psi|^2 = 1.000
==== e(   2) =  -104.55584 eV ==== 
     psi = 0.996*[#   1]+0.001*[#  24]+0.001*[#  32]
    |psi|^2 = 1.000
==== e(   3) =   -67.47817 eV ==== 
     psi = 0.947*[#   7]+0.052*[#   4]
    |psi|^2 = 1.000
==== e(   4) =   -67.10411 eV ==== 
     psi = 0.886*[#   8]+0.114*[#   5]
    |psi|^2 = 1.000
==== e(   5) =   -65.59478 eV ==== 
     psi = 1.000*[#   6]
    |psi|^2 = 1.000
==== e(   6) =   -64.91123 eV ==== 
     psi = 0.886*[#   5]+0.114*[#   8]
    |psi|^2 = 1.000
==== e(   7) =   -64.48888 eV ==== 
     psi = 0.947*[#   4]+0.052*[#   7]
    |psi|^2 = 1.000
==== e(   8) =   -64.16902 eV ==== 
     psi = 0.999*[#   3]
    |psi|^2 = 1.000
==== e(   9) =   -15.78770 eV ==== 
     psi = 0.365*[#  22]+0.365*[#  30]+0.259*[#  20]+0.003*[#  25]+0.003*[#  33]
          +0.001*[#  28]+0.001*[#  36]+0.001*[#   2]
    |psi|^2 = 1.000
==== e(  10) =   -15.57348 eV ==== 
     psi = 0.362*[#  21]+0.362*[#  29]+0.264*[#  19]+0.003*[#  24]+0.003*[#  32]
          +0.002*[#  27]+0.002*[#  35]+0.001*[#   1]
    |psi|^2 = 1.000
==== e(  11) =   -14.85017 eV ==== 
     psi = 0.495*[#  22]+0.495*[#  30]+0.002*[#  25]+0.002*[#  33]
    |psi|^2 = 0.997
==== e(  12) =   -14.60726 eV ==== 
     psi = 0.495*[#  21]+0.495*[#  29]+0.002*[#  24]+0.002*[#  32]
    |psi|^2 = 0.997
==== e(  13) =    -6.88932 eV ==== 
     psi = 0.207*[#  25]+0.207*[#  33]+0.173*[#  28]+0.173*[#  36]+0.071*[#  20]
          +0.061*[#  12]+0.035*[#  22]+0.035*[#  30]+0.031*[#  17]+0.002*[#   2]
          +0.001*[#   9]
    |psi|^2 = 0.995
==== e(  14) =    -6.71620 eV ==== 
     psi = 0.207*[#  27]+0.207*[#  35]+0.173*[#  24]+0.173*[#  32]+0.070*[#  19]
          +0.069*[#  11]+0.036*[#  21]+0.036*[#  29]+0.015*[#  14]+0.007*[#  16]
          +0.002*[#   1]
    |psi|^2 = 0.994
==== e(  15) =    -5.78575 eV ==== 
     psi = 0.322*[#  14]+0.278*[#  16]+0.101*[#  24]+0.101*[#  32]+0.088*[#  11]
          +0.047*[#  27]+0.047*[#  35]+0.005*[#  19]+0.002*[#  21]+0.002*[#  29]
          
    |psi|^2 = 0.995
==== e(  16) =    -5.67732 eV ==== 
     psi = 0.355*[#  15]+0.274*[#  13]+0.106*[#  26]+0.106*[#  34]+0.078*[#  18]
          +0.073*[#  10]
    |psi|^2 = 0.995
==== e(  17) =    -4.72452 eV ==== 
     psi = 0.323*[#   9]+0.158*[#  28]+0.158*[#  36]+0.129*[#  17]+0.103*[#  25]
          +0.103*[#  33]+0.005*[#  12]+0.002*[#  27]+0.002*[#  35]+0.001*[#  24]
          +0.001*[#  32]
    |psi|^2 = 0.989
==== e(  18) =    -4.43595 eV ==== 
     psi = 0.479*[#  18]+0.189*[#  23]+0.189*[#  31]+0.064*[#  15]+0.032*[#  10]
          +0.021*[#  13]+0.004*[#  27]+0.004*[#  35]+0.002*[#  24]+0.002*[#  32]
          
    |psi|^2 = 0.988
==== e(  19) =    -4.21158 eV ==== 
     psi = 0.364*[#  13]+0.184*[#  15]+0.105*[#  16]+0.104*[#  14]+0.063*[#  10]
          +0.054*[#  11]+0.028*[#  18]+0.025*[#  27]+0.025*[#  35]+0.007*[#  23]
          +0.007*[#  31]+0.004*[#  26]+0.004*[#  34]+0.003*[#  28]+0.003*[#  36]
          +0.003*[#  24]+0.003*[#  32]+0.001*[#  25]+0.001*[#  33]
    |psi|^2 = 0.989
==== e(  20) =    -4.20613 eV ==== 
     psi = 0.276*[#  14]+0.268*[#  16]+0.141*[#  13]+0.139*[#  11]+0.077*[#  15]
          +0.024*[#  10]+0.014*[#  27]+0.014*[#  35]+0.011*[#  18]+0.006*[#  24]
          +0.006*[#  32]+0.003*[#  23]+0.003*[#  31]+0.002*[#  26]+0.002*[#  34]
          +0.001*[#  28]+0.001*[#  36]
    |psi|^2 = 0.989
==== e(  21) =    -4.04823 eV ==== 
     psi = 0.384*[#  28]+0.384*[#  36]+0.101*[#  25]+0.101*[#  33]+0.007*[#  14]
          +0.005*[#  15]+0.003*[#  11]+0.002*[#  22]+0.002*[#  30]
    |psi|^2 = 0.993
==== e(  22) =    -3.96912 eV ==== 
     psi = 0.375*[#  27]+0.375*[#  35]+0.049*[#  17]+0.044*[#  12]+0.042*[#  13]
          +0.031*[#  24]+0.031*[#  32]+0.013*[#  15]+0.007*[#  10]+0.005*[#  23]
          +0.005*[#  31]+0.004*[#  20]+0.002*[#  28]+0.002*[#  36]+0.001*[#  22]
          +0.001*[#  30]+0.001*[#  21]+0.001*[#  29]
    |psi|^2 = 0.991
==== e(  23) =    -3.82853 eV ==== 
     psi = 0.375*[#  17]+0.374*[#  12]+0.041*[#  27]+0.041*[#  35]+0.037*[#   9]
          +0.034*[#  25]+0.034*[#  33]+0.021*[#  20]+0.008*[#  24]+0.008*[#  32]
          +0.005*[#  22]+0.005*[#  30]+0.002*[#  28]+0.002*[#  36]+0.002*[#  13]
          
    |psi|^2 = 0.992
==== e(  24) =    -3.27708 eV ==== 
     psi = 0.408*[#  12]+0.281*[#   9]+0.274*[#  17]+0.004*[#  25]+0.004*[#  33]
          +0.003*[#  23]+0.003*[#  31]+0.001*[#  20]+0.001*[#  28]+0.001*[#  36]
          
    |psi|^2 = 0.985
==== e(  25) =    -3.27114 eV ==== 
     psi = 0.582*[#  10]+0.178*[#  18]+0.126*[#  15]+0.043*[#  13]+0.013*[#  23]
          +0.013*[#  31]+0.013*[#  25]+0.013*[#  33]
    |psi|^2 = 0.986
==== e(  26) =    -3.13221 eV ==== 
     psi = 0.598*[#  11]+0.274*[#  16]+0.025*[#  19]+0.012*[#  27]+0.012*[#  35]
          +0.011*[#  25]+0.011*[#  33]+0.010*[#  24]+0.010*[#  32]+0.006*[#  21]
          +0.006*[#  29]+0.002*[#  23]+0.002*[#  31]+0.002*[#  10]
    |psi|^2 = 0.987
==== e(  27) =    -2.88041 eV ==== 
     psi = 0.448*[#  24]+0.448*[#  32]+0.039*[#  27]+0.039*[#  35]+0.002*[#  15]
          +0.002*[#  12]+0.001*[#  21]+0.001*[#  26]+0.001*[#  29]+0.001*[#  34]
          
    |psi|^2 = 0.987
==== e(  28) =    -2.78698 eV ==== 
     psi = 0.364*[#  25]+0.364*[#  33]+0.102*[#  28]+0.102*[#  36]+0.016*[#  11]
          +0.008*[#  10]+0.007*[#  16]+0.007*[#  18]+0.003*[#  15]+0.002*[#  27]
          +0.002*[#  35]+0.001*[#  13]+0.001*[#  23]+0.001*[#  31]
    |psi|^2 = 0.984
==== e(  29) =    -2.49162 eV ==== 
     psi = 0.449*[#  26]+0.449*[#  34]+0.027*[#  14]+0.014*[#  27]+0.014*[#  35]
          +0.010*[#  24]+0.010*[#  32]+0.002*[#  12]+0.001*[#  23]+0.001*[#  31]
          
    |psi|^2 = 0.982
==== e(  30) =    -2.24029 eV ==== 
     psi = 0.419*[#  23]+0.419*[#  31]+0.027*[#  14]+0.026*[#  27]+0.026*[#  35]
          +0.010*[#  26]+0.010*[#  34]+0.009*[#  24]+0.009*[#  32]+0.008*[#  11]
          +0.008*[#   9]+0.002*[#  19]+0.001*[#  28]+0.001*[#  36]+0.001*[#  16]
          
    |psi|^2 = 0.981
==== e(  31) =    -2.19828 eV ==== 
     psi = 0.214*[#  14]+0.160*[#  27]+0.160*[#  35]+0.118*[#  24]+0.118*[#  32]
          +0.057*[#  23]+0.057*[#  31]+0.044*[#  16]+0.027*[#  26]+0.027*[#  34]
          +0.007*[#  11]+0.002*[#  19]
    |psi|^2 = 0.996
==== e(  32) =    -1.66240 eV ==== 
     psi = 0.384*[#  26]+0.384*[#  34]+0.131*[#  15]+0.045*[#  13]+0.042*[#  10]
          +0.007*[#  18]+0.001*[#  24]+0.001*[#  32]
    |psi|^2 = 0.997
==== e(  33) =    -1.06522 eV ==== 
     psi = 0.334*[#   9]+0.138*[#  28]+0.138*[#  36]+0.124*[#  17]+0.087*[#  12]
          +0.080*[#  25]+0.080*[#  33]+0.004*[#  23]+0.004*[#  31]+0.002*[#  20]
          
    |psi|^2 = 0.995
==== e(  34) =    -0.67299 eV ==== 
     psi = 0.278*[#  23]+0.278*[#  31]+0.199*[#  18]+0.150*[#  10]+0.056*[#  13]
          +0.031*[#  15]
    |psi|^2 = 0.994
==== e(  35) =     1.79636 eV ==== 
     psi = 0.392*[#  20]+0.056*[#  22]+0.056*[#  30]+0.039*[#  25]+0.039*[#  33]
          +0.013*[#  28]+0.013*[#  36]
    |psi|^2 = 0.613
==== e(  36) =     1.92452 eV ==== 
     psi = 0.366*[#  19]+0.053*[#  21]+0.053*[#  29]+0.038*[#  24]+0.038*[#  32]
          +0.013*[#  27]+0.013*[#  35]
    |psi|^2 = 0.577
==== e(  37) =     2.55016 eV ==== 
     psi = 0.001*[#  22]+0.001*[#  30]
    |psi|^2 = 0.006
==== e(  38) =     2.65493 eV ==== 
     psi = 0.001*[#  21]+0.001*[#  29]
    |psi|^2 = 0.008
==== e(  39) =     2.69087 eV ==== 
 
    |psi|^2 = 0.000
==== e(  40) =     2.76152 eV ==== 
 
    |psi|^2 = 0.001

 k =   0.0000000000  0.0000000000  0.0000000000
==== e(   1) =  -105.88906 eV ==== 
     psi = 0.996*[#   2]+0.001*[#  25]+0.001*[#  33]
    |psi|^2 = 1.000
==== e(   2) =  -104.55584 eV ==== 
     psi = 0.996*[#   1]+0.001*[#  24]+0.001*[#  32]
    |psi|^2 = 1.000
==== e(   3) =   -67.47817 eV ==== 
     psi = 0.947*[#   7]+0.052*[#   4]
    |psi|^2 = 1.000
==== e(   4) =   -67.10411 eV ==== 
     psi = 0.886*[#   8]+0.114*[#   5]
    |psi|^2 = 1.000
==== e(   5) =   -65.59478 eV ==== 
     psi = 1.000*[#   6]
    |psi|^2 = 1.000
==== e(   6) =   -64.91122 eV ==== 
     psi = 0.886*[#   5]+0.114*[#   8]
    |psi|^2 = 1.000
==== e(   7) =   -64.48888 eV ==== 
     psi = 0.947*[#   4]+0.052*[#   7]
    |psi|^2 = 1.000
==== e(   8) =   -64.16902 eV ==== 
     psi = 1.000*[#   3]
    |psi|^2 = 1.000
==== e(   9) =   -15.79258 eV ==== 
     psi = 0.364*[#  22]+0.364*[#  30]+0.260*[#  20]+0.003*[#  25]+0.003*[#  33]
          +0.001*[#  28]+0.001*[#  36]+0.001*[#   2]
    |psi|^2 = 1.000
==== e(  10) =   -15.57842 eV ==== 
     psi = 0.361*[#  21]+0.361*[#  29]+0.265*[#  19]+0.003*[#  24]+0.003*[#  32]
          +0.002*[#  27]+0.002*[#  35]+0.001*[#   1]
    |psi|^2 = 1.000
==== e(  11) =   -14.85287 eV ==== 
     psi = 0.495*[#  22]+0.495*[#  30]+0.002*[#  25]+0.002*[#  33]
    |psi|^2 = 0.997
==== e(  12) =   -14.61004 eV ==== 
     psi = 0.495*[#  21]+0.495*[#  29]+0.002*[#  24]+0.002*[#  32]
    |psi|^2 = 0.997
==== e(  13) =    -6.89415 eV ==== 
     psi = 0.207*[#  25]+0.207*[#  33]+0.172*[#  28]+0.172*[#  36]+0.071*[#  20]
          +0.061*[#  12]+0.035*[#  22]+0.035*[#  30]+0.031*[#  17]+0.002*[#   2]
          +0.001*[#   9]
    |psi|^2 = 0.995
==== e(  14) =    -6.72055 eV ==== 
     psi = 0.206*[#  27]+0.206*[#  35]+0.174*[#  24]+0.174*[#  32]+0.070*[#  19]
          +0.069*[#  11]+0.036*[#  21]+0.036*[#  29]+0.015*[#  14]+0.007*[#  16]
          +0.002*[#   1]
    |psi|^2 = 0.994
==== e(  15) =    -5.78261 eV ==== 
     psi = 0.324*[#  14]+0.280*[#  16]+0.100*[#  24]+0.100*[#  32]+0.089*[#  11]
          +0.047*[#  27]+0.047*[#  35]+0.005*[#  19]+0.002*[#  21]+0.002*[#  29]
          
    |psi|^2 = 0.995
==== e(  16) =    -5.67412 eV ==== 
     psi = 0.357*[#  15]+0.275*[#  13]+0.106*[#  26]+0.106*[#  34]+0.078*[#  18]
          +0.073*[#  10]
    |psi|^2 = 0.995
==== e(  17) =    -4.71412 eV ==== 
     psi = 0.327*[#   9]+0.159*[#  28]+0.159*[#  36]+0.132*[#  17]+0.103*[#  25]
          +0.103*[#  33]+0.005*[#  12]
    |psi|^2 = 0.989
==== e(  18) =    -4.42601 eV ==== 
     psi = 0.493*[#  18]+0.188*[#  23]+0.188*[#  31]+0.071*[#  15]+0.030*[#  10]
          +0.018*[#  13]
    |psi|^2 = 0.988
==== e(  19) =    -4.20206 eV ==== 
     psi = 0.389*[#  14]+0.373*[#  16]+0.195*[#  11]+0.009*[#  24]+0.009*[#  32]
          +0.007*[#  27]+0.007*[#  35]
    |psi|^2 = 0.989
==== e(  20) =    -4.19160 eV ==== 
     psi = 0.555*[#  13]+0.270*[#  15]+0.098*[#  10]+0.029*[#  18]+0.015*[#  23]
          +0.015*[#  31]+0.004*[#  26]+0.004*[#  34]
    |psi|^2 = 0.989
==== e(  21) =    -4.05089 eV ==== 
     psi = 0.386*[#  28]+0.386*[#  36]+0.109*[#  25]+0.109*[#  33]+0.002*[#  22]
          +0.002*[#  30]
    |psi|^2 = 0.994
==== e(  22) =    -3.97474 eV ==== 
     psi = 0.452*[#  27]+0.452*[#  35]+0.042*[#  24]+0.042*[#  32]+0.001*[#  21]
          +0.001*[#  29]
    |psi|^2 = 0.992
==== e(  23) =    -3.83880 eV ==== 
     psi = 0.424*[#  17]+0.421*[#  12]+0.036*[#   9]+0.034*[#  25]+0.034*[#  33]
          +0.025*[#  20]+0.006*[#  22]+0.006*[#  30]+0.003*[#  28]+0.003*[#  36]
          
    |psi|^2 = 0.992
==== e(  24) =    -3.27073 eV ==== 
     psi = 0.411*[#  12]+0.286*[#   9]+0.275*[#  17]+0.004*[#  25]+0.004*[#  33]
          +0.001*[#  20]+0.001*[#  28]+0.001*[#  36]
    |psi|^2 = 0.985
==== e(  25) =    -3.26272 eV ==== 
     psi = 0.595*[#  10]+0.184*[#  18]+0.132*[#  15]+0.044*[#  13]+0.014*[#  23]
          +0.014*[#  31]
    |psi|^2 = 0.986
==== e(  26) =    -3.12030 eV ==== 
     psi = 0.620*[#  11]+0.283*[#  16]+0.024*[#  19]+0.013*[#  27]+0.013*[#  35]
          +0.011*[#  24]+0.011*[#  32]+0.006*[#  21]+0.006*[#  29]
    |psi|^2 = 0.987
==== e(  27) =    -2.87368 eV ==== 
     psi = 0.450*[#  24]+0.450*[#  32]+0.042*[#  27]+0.042*[#  35]+0.001*[#  21]
          +0.001*[#  29]
    |psi|^2 = 0.987
==== e(  28) =    -2.78894 eV ==== 
     psi = 0.383*[#  25]+0.383*[#  33]+0.107*[#  28]+0.107*[#  36]
    |psi|^2 = 0.984
==== e(  29) =    -2.45712 eV ==== 
     psi = 0.490*[#  26]+0.490*[#  34]
    |psi|^2 = 0.981
==== e(  30) =    -2.21726 eV ==== 
     psi = 0.488*[#  23]+0.488*[#  31]
    |psi|^2 = 0.978
==== e(  31) =    -2.20378 eV ==== 
     psi = 0.264*[#  14]+0.201*[#  27]+0.201*[#  35]+0.136*[#  24]+0.136*[#  32]
          +0.043*[#  16]+0.011*[#  11]+0.003*[#  19]
    |psi|^2 = 0.999
==== e(  32) =    -1.64009 eV ==== 
     psi = 0.387*[#  26]+0.387*[#  34]+0.132*[#  15]+0.044*[#  13]+0.042*[#  10]
          +0.007*[#  18]
    |psi|^2 = 0.998
==== e(  33) =    -1.05612 eV ==== 
     psi = 0.338*[#   9]+0.141*[#  28]+0.141*[#  36]+0.123*[#  17]+0.086*[#  12]
          +0.082*[#  25]+0.082*[#  33]+0.002*[#  20]
    |psi|^2 = 0.995
==== e(  34) =    -0.65264 eV ==== 
     psi = 0.281*[#  23]+0.281*[#  31]+0.199*[#  18]+0.148*[#  10]+0.056*[#  13]
          +0.030*[#  15]
    |psi|^2 = 0.996
==== e(  35) =     1.77136 eV ==== 
     psi = 0.397*[#  20]+0.057*[#  22]+0.057*[#  30]+0.040*[#  25]+0.040*[#  33]
          +0.013*[#  28]+0.013*[#  36]
    |psi|^2 = 0.620
==== e(  36) =     1.89996 eV ==== 
     psi = 0.371*[#  19]+0.055*[#  21]+0.055*[#  29]+0.038*[#  24]+0.038*[#  32]
          +0.013*[#  27]+0.013*[#  35]+0.001*[#  11]
    |psi|^2 = 0.586
==== e(  37) =     2.51074 eV ==== 
     psi = 0.001*[#  22]+0.001*[#  30]
    |psi|^2 = 0.004
==== e(  38) =     2.61283 eV ==== 
     psi = 0.001*[#  21]+0.001*[#  29]
    |psi|^2 = 0.005
==== e(  39) =     2.68387 eV ==== 
 
    |psi|^2 = 0.000
==== e(  40) =     2.75448 eV ==== 
 
    |psi|^2 = 0.001

Lowdin Charges: 

     Atom #   1: total charge =  17.3898, s =  2.6519, 
     Atom #   1: total charge =  17.3898, p =  5.9999, 
     Atom #   1: total charge =  17.3898, d =  8.7381, 
     Atom #   2: total charge =   7.1925, s =  1.9305, 
     Atom #   2: total charge =   7.1925, p =  5.2620, 
     Atom #   2: total charge =   7.1925, d =  0.0000, 
     Atom #   3: total charge =   7.1826, s =  1.9310, 
     Atom #   3: total charge =   7.1826, p =  5.2515, 
     Atom #   3: total charge =   7.1826, d =  0.0000, 
     Spilling Parameter:   0.0073
 
     PROJWFC      :      4.10s CPU      5.04s WALL

 
   This run was terminated on:  15:31:25  27Jun2023            

=------------------------------------------------------------------------------=
   JOB DONE.
=------------------------------------------------------------------------------=
