
     Program PROJWFC v.7.1 starts on 26Jun2023 at 23:23:56 

     This program is part of the open-source Quantum ESPRESSO suite
     for quantum simulation of materials; please cite
         "P. Giannozzi et al., J. Phys.:Condens. Matter 21 395502 (2009);
         "P. Giannozzi et al., J. Phys.:Condens. Matter 29 465901 (2017);
         "P. Giannozzi et al., J. Chem. Phys. 152 154105 (2020);
          URL http://www.quantum-espresso.org", 
     in publications or presentations arising from this work. More details at
     http://www.quantum-espresso.org/quote

     Parallel version (MPI & OpenMP), running on      20 processor cores
     Number of MPI processes:                20
     Threads/MPI process:                     1

     MPI processes distributed on     1 nodes
     R & G space division:  proc/nbgrp/npool/nimage =      20
     233032 MiB available memory on the printing compute node when the environment starts
 

     Reading xml data from directory:

     ./tmp/nnso.save/

     IMPORTANT: XC functional enforced from input :
     Exchange-correlation= PBE
                           (   1   4   3   4   0   0   0)
     Any further DFT definition will be discarded
     Please, verify this is what you really want

 
     Parallelization info
     --------------------
     sticks:   dense  smooth     PW     G-vecs:    dense   smooth      PW
     Min          93      89     24                20481    19267    2770
     Max          94      90     25                20502    19300    2795
     Sum        1879    1789    499               409943   385631   55807
 
     Using Slab Decomposition
 

     Gaussian broadening (read from input): ngauss,degauss=   0    0.003000


     Calling projwave .... 
     Subspace diagonalization in iterative solution of the eigenvalue problem:
     one sub-group per band group will be used
     ELPA distributed-memory algorithm (size of sub-group:  4*  4 procs)

     linear algebra parallelized on  16 procs
 
  Problem Sizes 
  natomwfc =           36
  nx       =            9
  nbnd     =           40
  nkstot   =           30
  npwx     =         2478
  nkb      =           54
 

     Atomic states used for projection
     (read from pseudopotential files):

     state #   1: atom   1 (Ni ), wfc  1 (l=0 m= 1 s_z= 0.5)
     state #   2: atom   1 (Ni ), wfc  1 (l=0 m= 1 s_z=-0.5)
     state #   3: atom   1 (Ni ), wfc  2 (l=1 m= 1 s_z= 0.5)
     state #   4: atom   1 (Ni ), wfc  2 (l=1 m= 2 s_z= 0.5)
     state #   5: atom   1 (Ni ), wfc  2 (l=1 m= 3 s_z= 0.5)
     state #   6: atom   1 (Ni ), wfc  2 (l=1 m= 1 s_z=-0.5)
     state #   7: atom   1 (Ni ), wfc  2 (l=1 m= 2 s_z=-0.5)
     state #   8: atom   1 (Ni ), wfc  2 (l=1 m= 3 s_z=-0.5)
     state #   9: atom   1 (Ni ), wfc  3 (l=2 m= 1 s_z= 0.5)
     state #  10: atom   1 (Ni ), wfc  3 (l=2 m= 2 s_z= 0.5)
     state #  11: atom   1 (Ni ), wfc  3 (l=2 m= 3 s_z= 0.5)
     state #  12: atom   1 (Ni ), wfc  3 (l=2 m= 4 s_z= 0.5)
     state #  13: atom   1 (Ni ), wfc  3 (l=2 m= 5 s_z= 0.5)
     state #  14: atom   1 (Ni ), wfc  3 (l=2 m= 1 s_z=-0.5)
     state #  15: atom   1 (Ni ), wfc  3 (l=2 m= 2 s_z=-0.5)
     state #  16: atom   1 (Ni ), wfc  3 (l=2 m= 3 s_z=-0.5)
     state #  17: atom   1 (Ni ), wfc  3 (l=2 m= 4 s_z=-0.5)
     state #  18: atom   1 (Ni ), wfc  3 (l=2 m= 5 s_z=-0.5)
     state #  19: atom   1 (Ni ), wfc  4 (l=0 m= 1 s_z= 0.5)
     state #  20: atom   1 (Ni ), wfc  4 (l=0 m= 1 s_z=-0.5)
     state #  21: atom   2 (I  ), wfc  1 (l=0 m= 1 s_z= 0.5)
     state #  22: atom   2 (I  ), wfc  1 (l=0 m= 1 s_z=-0.5)
     state #  23: atom   2 (I  ), wfc  2 (l=1 m= 1 s_z= 0.5)
     state #  24: atom   2 (I  ), wfc  2 (l=1 m= 2 s_z= 0.5)
     state #  25: atom   2 (I  ), wfc  2 (l=1 m= 3 s_z= 0.5)
     state #  26: atom   2 (I  ), wfc  2 (l=1 m= 1 s_z=-0.5)
     state #  27: atom   2 (I  ), wfc  2 (l=1 m= 2 s_z=-0.5)
     state #  28: atom   2 (I  ), wfc  2 (l=1 m= 3 s_z=-0.5)
     state #  29: atom   3 (I  ), wfc  1 (l=0 m= 1 s_z= 0.5)
     state #  30: atom   3 (I  ), wfc  1 (l=0 m= 1 s_z=-0.5)
     state #  31: atom   3 (I  ), wfc  2 (l=1 m= 1 s_z= 0.5)
     state #  32: atom   3 (I  ), wfc  2 (l=1 m= 2 s_z= 0.5)
     state #  33: atom   3 (I  ), wfc  2 (l=1 m= 3 s_z= 0.5)
     state #  34: atom   3 (I  ), wfc  2 (l=1 m= 1 s_z=-0.5)
     state #  35: atom   3 (I  ), wfc  2 (l=1 m= 2 s_z=-0.5)
     state #  36: atom   3 (I  ), wfc  2 (l=1 m= 3 s_z=-0.5)

 k =   0.0000000000  0.0000000000  0.0000000000
==== e(   1) =  -105.99971 eV ==== 
     psi = 0.996*[#   1]+0.002*[#  23]+0.002*[#  31]
    |psi|^2 = 1.000
==== e(   2) =  -104.62916 eV ==== 
     psi = 0.996*[#   2]+0.002*[#  26]+0.002*[#  34]
    |psi|^2 = 1.000
==== e(   3) =   -66.47339 eV ==== 
     psi = 0.999*[#   3]
    |psi|^2 = 1.000
==== e(   4) =   -66.41994 eV ==== 
     psi = 0.500*[#   4]+0.500*[#   5]
    |psi|^2 = 1.000
==== e(   5) =   -66.41994 eV ==== 
     psi = 0.500*[#   4]+0.500*[#   5]
    |psi|^2 = 1.000
==== e(   6) =   -64.96404 eV ==== 
     psi = 0.999*[#   6]
    |psi|^2 = 1.000
==== e(   7) =   -64.95299 eV ==== 
     psi = 0.500*[#   7]+0.500*[#   8]
    |psi|^2 = 1.000
==== e(   8) =   -64.95299 eV ==== 
     psi = 0.500*[#   7]+0.500*[#   8]
    |psi|^2 = 1.000
==== e(   9) =   -15.79563 eV ==== 
     psi = 0.364*[#  21]+0.364*[#  29]+0.261*[#  19]+0.005*[#  23]+0.005*[#  31]
          +0.001*[#   1]
    |psi|^2 = 1.000
==== e(  10) =   -15.57079 eV ==== 
     psi = 0.361*[#  22]+0.361*[#  30]+0.266*[#  20]+0.005*[#  26]+0.005*[#  34]
          +0.001*[#   2]
    |psi|^2 = 1.000
==== e(  11) =   -14.85348 eV ==== 
     psi = 0.495*[#  21]+0.495*[#  29]+0.003*[#  23]+0.003*[#  31]
    |psi|^2 = 0.997
==== e(  12) =   -14.59725 eV ==== 
     psi = 0.495*[#  22]+0.495*[#  30]+0.003*[#  26]+0.003*[#  34]
    |psi|^2 = 0.997
==== e(  13) =    -6.86252 eV ==== 
     psi = 0.374*[#  23]+0.374*[#  31]+0.100*[#   9]+0.072*[#  19]+0.035*[#  21]
          +0.035*[#  29]+0.002*[#   1]
    |psi|^2 = 0.994
==== e(  14) =    -6.64336 eV ==== 
     psi = 0.381*[#  26]+0.381*[#  34]+0.078*[#  14]+0.075*[#  20]+0.039*[#  22]
          +0.039*[#  30]+0.003*[#   2]
    |psi|^2 = 0.994
==== e(  15) =    -5.81816 eV ==== 
     psi = 0.193*[#  12]+0.193*[#  13]+0.186*[#  10]+0.186*[#  11]+0.060*[#  24]
          +0.060*[#  25]+0.060*[#  32]+0.060*[#  33]
    |psi|^2 = 0.995
==== e(  16) =    -5.81816 eV ==== 
     psi = 0.193*[#  12]+0.193*[#  13]+0.186*[#  10]+0.186*[#  11]+0.060*[#  24]
          +0.060*[#  25]+0.060*[#  32]+0.060*[#  33]
    |psi|^2 = 0.995
==== e(  17) =    -4.57124 eV ==== 
     psi = 0.214*[#  17]+0.214*[#  18]+0.117*[#  27]+0.117*[#  28]+0.117*[#  35]
          +0.117*[#  36]+0.046*[#  15]+0.046*[#  16]
    |psi|^2 = 0.988
==== e(  18) =    -4.57124 eV ==== 
     psi = 0.214*[#  17]+0.214*[#  18]+0.117*[#  27]+0.117*[#  28]+0.117*[#  35]
          +0.117*[#  36]+0.046*[#  15]+0.046*[#  16]
    |psi|^2 = 0.988
==== e(  19) =    -4.28568 eV ==== 
     psi = 0.285*[#  10]+0.285*[#  11]+0.201*[#  12]+0.201*[#  13]+0.004*[#  24]
          +0.004*[#  25]+0.004*[#  32]+0.004*[#  33]
    |psi|^2 = 0.990
==== e(  20) =    -4.28568 eV ==== 
     psi = 0.285*[#  10]+0.285*[#  11]+0.201*[#  12]+0.201*[#  13]+0.004*[#  24]
          +0.004*[#  25]+0.004*[#  32]+0.004*[#  33]
    |psi|^2 = 0.990
==== e(  21) =    -3.91979 eV ==== 
     psi = 0.885*[#   9]+0.035*[#  23]+0.035*[#  31]+0.025*[#  19]+0.006*[#  21]
          +0.006*[#  29]
    |psi|^2 = 0.993
==== e(  22) =    -3.79161 eV ==== 
     psi = 0.495*[#  23]+0.495*[#  31]+0.003*[#  21]+0.003*[#  29]
    |psi|^2 = 0.995
==== e(  23) =    -3.54906 eV ==== 
     psi = 0.494*[#  26]+0.494*[#  34]+0.003*[#  22]+0.003*[#  30]
    |psi|^2 = 0.994
==== e(  24) =    -3.34536 eV ==== 
     psi = 0.349*[#  15]+0.349*[#  16]+0.135*[#  17]+0.135*[#  18]+0.004*[#  27]
          +0.004*[#  28]+0.004*[#  35]+0.004*[#  36]
    |psi|^2 = 0.986
==== e(  25) =    -3.34536 eV ==== 
     psi = 0.349*[#  15]+0.349*[#  16]+0.135*[#  17]+0.135*[#  18]+0.004*[#  27]
          +0.004*[#  28]+0.004*[#  35]+0.004*[#  36]
    |psi|^2 = 0.986
==== e(  26) =    -3.18518 eV ==== 
     psi = 0.900*[#  14]+0.025*[#  20]+0.025*[#  26]+0.025*[#  34]+0.006*[#  22]
          +0.006*[#  30]
    |psi|^2 = 0.987
==== e(  27) =    -2.88152 eV ==== 
     psi = 0.246*[#  24]+0.246*[#  25]+0.246*[#  32]+0.246*[#  33]
    |psi|^2 = 0.984
==== e(  28) =    -2.88152 eV ==== 
     psi = 0.246*[#  24]+0.246*[#  25]+0.246*[#  32]+0.246*[#  33]
    |psi|^2 = 0.984
==== e(  29) =    -2.62921 eV ==== 
     psi = 0.245*[#  27]+0.245*[#  28]+0.245*[#  35]+0.245*[#  36]
    |psi|^2 = 0.980
==== e(  30) =    -2.62921 eV ==== 
     psi = 0.245*[#  27]+0.245*[#  28]+0.245*[#  35]+0.245*[#  36]
    |psi|^2 = 0.980
==== e(  31) =    -1.98543 eV ==== 
     psi = 0.185*[#  24]+0.185*[#  25]+0.185*[#  32]+0.185*[#  33]+0.103*[#  12]
          +0.103*[#  13]+0.026*[#  10]+0.026*[#  11]
    |psi|^2 = 0.999
==== e(  32) =    -1.98543 eV ==== 
     psi = 0.185*[#  24]+0.185*[#  25]+0.185*[#  32]+0.185*[#  33]+0.103*[#  12]
          +0.103*[#  13]+0.026*[#  10]+0.026*[#  11]
    |psi|^2 = 0.999
==== e(  33) =    -0.89059 eV ==== 
     psi = 0.145*[#  17]+0.145*[#  18]+0.128*[#  27]+0.128*[#  28]+0.128*[#  35]
          +0.128*[#  36]+0.097*[#  15]+0.097*[#  16]
    |psi|^2 = 0.996
==== e(  34) =    -0.89059 eV ==== 
     psi = 0.145*[#  17]+0.145*[#  18]+0.128*[#  27]+0.128*[#  28]+0.128*[#  35]
          +0.128*[#  36]+0.097*[#  15]+0.097*[#  16]
    |psi|^2 = 0.996
==== e(  35) =     1.76643 eV ==== 
     psi = 0.402*[#  19]+0.058*[#  21]+0.058*[#  29]+0.053*[#  23]+0.053*[#  31]
          +0.002*[#   9]
    |psi|^2 = 0.627
==== e(  36) =     1.89902 eV ==== 
     psi = 0.376*[#  20]+0.055*[#  22]+0.055*[#  30]+0.052*[#  26]+0.052*[#  34]
          +0.002*[#  14]
    |psi|^2 = 0.592
==== e(  37) =     2.50453 eV ==== 
     psi = 0.001*[#  21]+0.001*[#  29]
    |psi|^2 = 0.004
==== e(  38) =     2.60945 eV ==== 
     psi = 0.002*[#  22]+0.002*[#  30]+0.001*[#  26]+0.001*[#  34]
    |psi|^2 = 0.005
==== e(  39) =     2.68436 eV ==== 
 
    |psi|^2 = 0.000
==== e(  40) =     2.75758 eV ==== 
 
    |psi|^2 = 0.000

 k =   0.0000000000  0.0721687836  0.0000000000
==== e(   1) =  -105.99971 eV ==== 
     psi = 0.996*[#   1]+0.002*[#  23]+0.002*[#  31]
    |psi|^2 = 1.000
==== e(   2) =  -104.62916 eV ==== 
     psi = 0.996*[#   2]+0.002*[#  26]+0.002*[#  34]
    |psi|^2 = 1.000
==== e(   3) =   -66.47339 eV ==== 
     psi = 0.999*[#   3]
    |psi|^2 = 1.000
==== e(   4) =   -66.41996 eV ==== 
     psi = 0.500*[#   4]+0.500*[#   5]
    |psi|^2 = 1.000
==== e(   5) =   -66.41995 eV ==== 
     psi = 0.500*[#   4]+0.500*[#   5]
    |psi|^2 = 1.000
==== e(   6) =   -64.96404 eV ==== 
     psi = 0.999*[#   6]
    |psi|^2 = 1.000
==== e(   7) =   -64.95302 eV ==== 
     psi = 0.500*[#   7]+0.500*[#   8]
    |psi|^2 = 1.000
==== e(   8) =   -64.95300 eV ==== 
     psi = 0.500*[#   7]+0.500*[#   8]
    |psi|^2 = 1.000
==== e(   9) =   -15.76528 eV ==== 
     psi = 0.367*[#  21]+0.367*[#  29]+0.254*[#  19]+0.005*[#  23]+0.005*[#  31]
          +0.001*[#   1]
    |psi|^2 = 1.000
==== e(  10) =   -15.53998 eV ==== 
     psi = 0.363*[#  22]+0.363*[#  30]+0.259*[#  20]+0.005*[#  26]+0.005*[#  34]
          +0.001*[#   2]
    |psi|^2 = 1.000
==== e(  11) =   -14.83680 eV ==== 
     psi = 0.494*[#  21]+0.494*[#  29]+0.003*[#  23]+0.003*[#  31]
    |psi|^2 = 0.997
==== e(  12) =   -14.58003 eV ==== 
     psi = 0.494*[#  22]+0.494*[#  30]+0.003*[#  26]+0.003*[#  34]
    |psi|^2 = 0.997
==== e(  13) =    -6.83131 eV ==== 
     psi = 0.373*[#  23]+0.373*[#  31]+0.099*[#   9]+0.074*[#  19]+0.036*[#  21]
          +0.036*[#  29]+0.002*[#   1]
    |psi|^2 = 0.994
==== e(  14) =    -6.61285 eV ==== 
     psi = 0.380*[#  26]+0.380*[#  34]+0.078*[#  20]+0.076*[#  14]+0.039*[#  22]
          +0.039*[#  30]+0.002*[#   2]
    |psi|^2 = 0.994
==== e(  15) =    -5.85744 eV ==== 
     psi = 0.189*[#  12]+0.189*[#  13]+0.175*[#  10]+0.175*[#  11]+0.062*[#  24]
          +0.062*[#  25]+0.062*[#  32]+0.062*[#  33]+0.008*[#  23]+0.008*[#  31]
          
    |psi|^2 = 0.995
==== e(  16) =    -5.81482 eV ==== 
     psi = 0.189*[#  10]+0.189*[#  11]+0.189*[#  12]+0.189*[#  13]+0.060*[#  24]
          +0.060*[#  25]+0.060*[#  32]+0.060*[#  33]
    |psi|^2 = 0.995
==== e(  17) =    -4.68595 eV ==== 
     psi = 0.194*[#  17]+0.194*[#  18]+0.116*[#  27]+0.116*[#  28]+0.116*[#  35]
          +0.116*[#  36]+0.040*[#  15]+0.040*[#  16]+0.026*[#  26]+0.026*[#  34]
          
    |psi|^2 = 0.988
==== e(  18) =    -4.56804 eV ==== 
     psi = 0.208*[#  17]+0.208*[#  18]+0.119*[#  27]+0.119*[#  28]+0.119*[#  35]
          +0.119*[#  36]+0.048*[#  15]+0.048*[#  16]
    |psi|^2 = 0.988
==== e(  19) =    -4.33254 eV ==== 
     psi = 0.285*[#  10]+0.285*[#  11]+0.177*[#  12]+0.177*[#  13]+0.013*[#  24]
          +0.013*[#  25]+0.013*[#  32]+0.013*[#  33]+0.006*[#   9]+0.003*[#  23]
          +0.003*[#  31]
    |psi|^2 = 0.989
==== e(  20) =    -4.30342 eV ==== 
     psi = 0.275*[#  10]+0.275*[#  11]+0.199*[#  12]+0.199*[#  13]+0.010*[#  24]
          +0.010*[#  25]+0.010*[#  32]+0.010*[#  33]
    |psi|^2 = 0.990
==== e(  21) =    -3.96203 eV ==== 
     psi = 0.838*[#   9]+0.029*[#  19]+0.028*[#  23]+0.028*[#  31]+0.010*[#  24]
          +0.010*[#  25]+0.010*[#  32]+0.010*[#  33]+0.008*[#  21]+0.008*[#  29]
          +0.004*[#  10]+0.004*[#  11]+0.003*[#  12]+0.003*[#  13]
    |psi|^2 = 0.992
==== e(  22) =    -3.74010 eV ==== 
     psi = 0.483*[#  23]+0.483*[#  31]+0.008*[#  12]+0.008*[#  13]+0.002*[#  21]
          +0.002*[#  29]+0.002*[#  24]+0.002*[#  25]+0.002*[#  32]+0.002*[#  33]
          
    |psi|^2 = 0.994
==== e(  23) =    -3.48254 eV ==== 
     psi = 0.414*[#  26]+0.414*[#  34]+0.036*[#  17]+0.036*[#  18]+0.023*[#  15]
          +0.023*[#  16]+0.008*[#  27]+0.008*[#  28]+0.008*[#  35]+0.008*[#  36]
          +0.007*[#  14]+0.002*[#  22]+0.002*[#  30]
    |psi|^2 = 0.990
==== e(  24) =    -3.43081 eV ==== 
     psi = 0.239*[#  15]+0.239*[#  16]+0.096*[#  14]+0.059*[#  17]+0.059*[#  18]
          +0.053*[#  26]+0.053*[#  34]+0.043*[#  27]+0.043*[#  28]+0.043*[#  35]
          +0.043*[#  36]+0.007*[#  20]+0.003*[#  22]+0.003*[#  30]
    |psi|^2 = 0.985
==== e(  25) =    -3.39693 eV ==== 
     psi = 0.328*[#  15]+0.328*[#  16]+0.123*[#  17]+0.123*[#  18]+0.021*[#  27]
          +0.021*[#  28]+0.021*[#  35]+0.021*[#  36]
    |psi|^2 = 0.985
==== e(  26) =    -3.25080 eV ==== 
     psi = 0.650*[#  14]+0.069*[#  15]+0.069*[#  16]+0.033*[#  17]+0.033*[#  18]
          +0.025*[#  20]+0.016*[#  27]+0.016*[#  28]+0.016*[#  35]+0.016*[#  36]
          +0.014*[#  26]+0.014*[#  34]+0.007*[#  22]+0.007*[#  30]
    |psi|^2 = 0.986
==== e(  27) =    -3.03971 eV ==== 
     psi = 0.218*[#  24]+0.218*[#  25]+0.218*[#  32]+0.218*[#  33]+0.044*[#   9]
          +0.015*[#  12]+0.015*[#  13]+0.011*[#  23]+0.011*[#  31]+0.005*[#  19]
          +0.004*[#  10]+0.004*[#  11]+0.002*[#  21]+0.002*[#  29]
    |psi|^2 = 0.985
==== e(  28) =    -2.91854 eV ==== 
     psi = 0.237*[#  24]+0.237*[#  25]+0.237*[#  32]+0.237*[#  33]+0.014*[#  12]
          +0.014*[#  13]+0.003*[#  10]+0.003*[#  11]
    |psi|^2 = 0.983
==== e(  29) =    -2.70435 eV ==== 
     psi = 0.181*[#  27]+0.181*[#  28]+0.181*[#  35]+0.181*[#  36]+0.150*[#  14]
          +0.023*[#  17]+0.023*[#  18]+0.016*[#  26]+0.016*[#  34]+0.014*[#  15]
          +0.014*[#  16]+0.001*[#  20]
    |psi|^2 = 0.984
==== e(  30) =    -2.63595 eV ==== 
     psi = 0.226*[#  27]+0.226*[#  28]+0.226*[#  35]+0.226*[#  36]+0.025*[#  17]
          +0.025*[#  18]+0.013*[#  15]+0.013*[#  16]
    |psi|^2 = 0.980
==== e(  31) =    -2.16140 eV ==== 
     psi = 0.181*[#  24]+0.181*[#  25]+0.181*[#  32]+0.181*[#  33]+0.104*[#  12]
          +0.104*[#  13]+0.028*[#  10]+0.028*[#  11]+0.002*[#  21]+0.002*[#  29]
          
    |psi|^2 = 0.992
==== e(  32) =    -2.01124 eV ==== 
     psi = 0.188*[#  24]+0.188*[#  25]+0.188*[#  32]+0.188*[#  33]+0.095*[#  12]
          +0.095*[#  13]+0.030*[#  10]+0.030*[#  11]
    |psi|^2 = 0.998
==== e(  33) =    -1.04512 eV ==== 
     psi = 0.147*[#  17]+0.147*[#  18]+0.118*[#  27]+0.118*[#  28]+0.118*[#  35]
          +0.118*[#  36]+0.106*[#  15]+0.106*[#  16]+0.002*[#  22]+0.002*[#  30]
          
    |psi|^2 = 0.985
==== e(  34) =    -0.91319 eV ==== 
     psi = 0.138*[#  17]+0.138*[#  18]+0.128*[#  27]+0.128*[#  28]+0.128*[#  35]
          +0.128*[#  36]+0.103*[#  15]+0.103*[#  16]
    |psi|^2 = 0.995
==== e(  35) =     1.91176 eV ==== 
     psi = 0.372*[#  19]+0.050*[#  21]+0.050*[#  29]+0.047*[#  23]+0.047*[#  31]
          +0.004*[#  24]+0.004*[#  25]+0.004*[#  32]+0.004*[#  33]
    |psi|^2 = 0.585
==== e(  36) =     2.04241 eV ==== 
     psi = 0.343*[#  20]+0.047*[#  22]+0.047*[#  30]+0.046*[#  26]+0.046*[#  34]
          +0.004*[#  27]+0.004*[#  28]+0.004*[#  35]+0.004*[#  36]
    |psi|^2 = 0.545
==== e(  37) =     2.70347 eV ==== 
 
    |psi|^2 = 0.006
==== e(  38) =     2.75402 eV ==== 
 
    |psi|^2 = 0.007
==== e(  39) =     2.79187 eV ==== 
 
    |psi|^2 = 0.003
==== e(  40) =     2.85832 eV ==== 
     psi = 0.002*[#  27]+0.002*[#  28]+0.002*[#  35]+0.002*[#  36]+0.001*[#  22]
          +0.001*[#  30]
    |psi|^2 = 0.015

 k =   0.0000000000  0.1443375673  0.0000000000
==== e(   1) =  -105.99971 eV ==== 
     psi = 0.995*[#   1]+0.002*[#  23]+0.002*[#  31]
    |psi|^2 = 1.000
==== e(   2) =  -104.62916 eV ==== 
     psi = 0.995*[#   2]+0.002*[#  26]+0.002*[#  34]
    |psi|^2 = 1.000
==== e(   3) =   -66.47338 eV ==== 
     psi = 0.999*[#   3]
    |psi|^2 = 1.000
==== e(   4) =   -66.42001 eV ==== 
     psi = 0.500*[#   4]+0.500*[#   5]
    |psi|^2 = 1.000
==== e(   5) =   -66.41996 eV ==== 
     psi = 0.500*[#   4]+0.500*[#   5]
    |psi|^2 = 1.000
==== e(   6) =   -64.96403 eV ==== 
     psi = 0.999*[#   6]
    |psi|^2 = 1.000
==== e(   7) =   -64.95307 eV ==== 
     psi = 0.500*[#   7]+0.500*[#   8]
    |psi|^2 = 1.000
==== e(   8) =   -64.95301 eV ==== 
     psi = 0.500*[#   7]+0.500*[#   8]
    |psi|^2 = 1.000
==== e(   9) =   -15.67628 eV ==== 
     psi = 0.374*[#  21]+0.374*[#  29]+0.234*[#  19]+0.005*[#  23]+0.005*[#  31]
          +0.001*[#  24]+0.001*[#  25]+0.001*[#  32]+0.001*[#  33]
    |psi|^2 = 1.000
==== e(  10) =   -15.44958 eV ==== 
     psi = 0.371*[#  22]+0.371*[#  30]+0.239*[#  20]+0.005*[#  26]+0.005*[#  34]
          +0.001*[#  27]+0.001*[#  28]+0.001*[#  35]+0.001*[#  36]
    |psi|^2 = 1.000
==== e(  11) =   -14.78913 eV ==== 
     psi = 0.492*[#  21]+0.492*[#  29]+0.002*[#  23]+0.002*[#  31]+0.001*[#  10]
          +0.001*[#  11]+0.001*[#  24]+0.001*[#  25]+0.001*[#  32]+0.001*[#  33]
          
    |psi|^2 = 0.997
==== e(  12) =   -14.53077 eV ==== 
     psi = 0.492*[#  22]+0.492*[#  30]+0.002*[#  26]+0.002*[#  34]+0.001*[#  27]
          +0.001*[#  28]+0.001*[#  35]+0.001*[#  36]+0.001*[#  15]+0.001*[#  16]
          
    |psi|^2 = 0.997
==== e(  13) =    -6.74324 eV ==== 
     psi = 0.370*[#  23]+0.370*[#  31]+0.093*[#   9]+0.081*[#  19]+0.036*[#  21]
          +0.036*[#  29]+0.002*[#   1]+0.001*[#  24]+0.001*[#  25]+0.001*[#  32]
          +0.001*[#  33]
    |psi|^2 = 0.994
==== e(  14) =    -6.52735 eV ==== 
     psi = 0.375*[#  26]+0.375*[#  34]+0.085*[#  20]+0.071*[#  14]+0.040*[#  22]
          +0.040*[#  30]+0.002*[#   2]+0.001*[#  27]+0.001*[#  28]+0.001*[#  35]
          +0.001*[#  36]
    |psi|^2 = 0.994
==== e(  15) =    -5.96279 eV ==== 
     psi = 0.179*[#  12]+0.179*[#  13]+0.148*[#  10]+0.148*[#  11]+0.071*[#  24]
          +0.071*[#  25]+0.071*[#  32]+0.071*[#  33]+0.027*[#  23]+0.027*[#  31]
          
    |psi|^2 = 0.994
==== e(  16) =    -5.80569 eV ==== 
     psi = 0.199*[#  10]+0.199*[#  11]+0.177*[#  12]+0.177*[#  13]+0.061*[#  24]
          +0.061*[#  25]+0.061*[#  32]+0.061*[#  33]
    |psi|^2 = 0.995
==== e(  17) =    -4.96342 eV ==== 
     psi = 0.159*[#  17]+0.159*[#  18]+0.124*[#  27]+0.124*[#  28]+0.124*[#  35]
          +0.124*[#  36]+0.056*[#  26]+0.056*[#  34]+0.028*[#  15]+0.028*[#  16]
          +0.001*[#  22]+0.001*[#  30]
    |psi|^2 = 0.986
==== e(  18) =    -4.55903 eV ==== 
     psi = 0.191*[#  17]+0.191*[#  18]+0.125*[#  27]+0.125*[#  28]+0.125*[#  35]
          +0.125*[#  36]+0.053*[#  15]+0.053*[#  16]
    |psi|^2 = 0.987
==== e(  19) =    -4.54805 eV ==== 
     psi = 0.228*[#  10]+0.228*[#  11]+0.091*[#  12]+0.091*[#  13]+0.070*[#   9]
          +0.061*[#  24]+0.061*[#  25]+0.061*[#  32]+0.061*[#  33]+0.012*[#  19]
          +0.005*[#  23]+0.005*[#  31]+0.005*[#  21]+0.005*[#  29]
    |psi|^2 = 0.986
==== e(  20) =    -4.35131 eV ==== 
     psi = 0.247*[#  10]+0.247*[#  11]+0.194*[#  12]+0.194*[#  13]+0.027*[#  24]
          +0.027*[#  25]+0.027*[#  32]+0.027*[#  33]
    |psi|^2 = 0.989
==== e(  21) =    -4.07020 eV ==== 
     psi = 0.608*[#   9]+0.064*[#  10]+0.064*[#  11]+0.043*[#  12]+0.043*[#  13]
          +0.033*[#  19]+0.022*[#  24]+0.022*[#  25]+0.022*[#  32]+0.022*[#  33]
          +0.014*[#  23]+0.014*[#  31]+0.009*[#  21]+0.009*[#  29]
    |psi|^2 = 0.990
==== e(  22) =    -3.86764 eV ==== 
     psi = 0.165*[#  14]+0.126*[#  27]+0.126*[#  28]+0.126*[#  35]+0.126*[#  36]
          +0.113*[#  15]+0.113*[#  16]+0.032*[#  20]+0.012*[#  17]+0.012*[#  18]
          +0.011*[#  22]+0.011*[#  30]+0.003*[#  26]+0.003*[#  34]
    |psi|^2 = 0.981
==== e(  23) =    -3.61842 eV ==== 
     psi = 0.455*[#  23]+0.455*[#  31]+0.019*[#  12]+0.019*[#  13]+0.010*[#  24]
          +0.010*[#  25]+0.010*[#  32]+0.010*[#  33]+0.003*[#   9]+0.001*[#  21]
          +0.001*[#  29]
    |psi|^2 = 0.991
==== e(  24) =    -3.52987 eV ==== 
     psi = 0.284*[#  15]+0.284*[#  16]+0.098*[#  17]+0.098*[#  18]+0.055*[#  27]
          +0.055*[#  28]+0.055*[#  35]+0.055*[#  36]
    |psi|^2 = 0.985
==== e(  25) =    -3.35154 eV ==== 
     psi = 0.407*[#  26]+0.407*[#  34]+0.025*[#  17]+0.025*[#  18]+0.022*[#  27]
          +0.022*[#  28]+0.022*[#  35]+0.022*[#  36]+0.019*[#  14]+0.005*[#  15]
          +0.005*[#  16]+0.001*[#  20]+0.001*[#  22]+0.001*[#  30]
    |psi|^2 = 0.987
==== e(  26) =    -3.32581 eV ==== 
     psi = 0.209*[#   9]+0.137*[#  24]+0.137*[#  25]+0.137*[#  32]+0.137*[#  33]
          +0.052*[#  12]+0.052*[#  13]+0.039*[#  23]+0.039*[#  31]+0.017*[#  10]
          +0.017*[#  11]+0.006*[#  19]+0.003*[#  21]+0.003*[#  29]
    |psi|^2 = 0.988
==== e(  27) =    -3.29785 eV ==== 
     psi = 0.327*[#  14]+0.179*[#  15]+0.179*[#  16]+0.083*[#  17]+0.083*[#  18]
          +0.029*[#  26]+0.029*[#  34]+0.016*[#  20]+0.013*[#  27]+0.013*[#  28]
          +0.013*[#  35]+0.013*[#  36]+0.004*[#  22]+0.004*[#  30]
    |psi|^2 = 0.984
==== e(  28) =    -3.02917 eV ==== 
     psi = 0.214*[#  24]+0.214*[#  25]+0.214*[#  32]+0.214*[#  33]+0.054*[#  12]
          +0.054*[#  13]+0.010*[#  10]+0.010*[#  11]
    |psi|^2 = 0.982
==== e(  29) =    -2.79725 eV ==== 
     psi = 0.399*[#  14]+0.085*[#  27]+0.085*[#  28]+0.085*[#  35]+0.085*[#  36]
          +0.059*[#  17]+0.059*[#  18]+0.034*[#  26]+0.034*[#  34]+0.030*[#  15]
          +0.030*[#  16]
    |psi|^2 = 0.989
==== e(  30) =    -2.67036 eV ==== 
     psi = 0.185*[#  27]+0.185*[#  28]+0.185*[#  35]+0.185*[#  36]+0.086*[#  17]
          +0.086*[#  18]+0.035*[#  15]+0.035*[#  16]
    |psi|^2 = 0.981
==== e(  31) =    -2.57953 eV ==== 
     psi = 0.165*[#  24]+0.165*[#  25]+0.165*[#  32]+0.165*[#  33]+0.110*[#  12]
          +0.110*[#  13]+0.037*[#  10]+0.037*[#  11]+0.007*[#  23]+0.007*[#  31]
          +0.006*[#   9]+0.006*[#  21]+0.006*[#  29]
    |psi|^2 = 0.986
==== e(  32) =    -2.07237 eV ==== 
     psi = 0.193*[#  24]+0.193*[#  25]+0.193*[#  32]+0.193*[#  33]+0.072*[#  12]
          +0.072*[#  13]+0.042*[#  10]+0.042*[#  11]
    |psi|^2 = 0.998
==== e(  33) =    -1.36016 eV ==== 
     psi = 0.154*[#  17]+0.154*[#  18]+0.134*[#  15]+0.134*[#  16]+0.093*[#  27]
          +0.093*[#  28]+0.093*[#  35]+0.093*[#  36]+0.009*[#  26]+0.009*[#  34]
          +0.005*[#  22]+0.005*[#  30]+0.001*[#  14]
    |psi|^2 = 0.978
==== e(  34) =    -0.96545 eV ==== 
     psi = 0.127*[#  27]+0.127*[#  28]+0.127*[#  35]+0.127*[#  36]+0.122*[#  15]
          +0.122*[#  16]+0.120*[#  17]+0.120*[#  18]
    |psi|^2 = 0.993
==== e(  35) =     2.23680 eV ==== 
     psi = 0.317*[#  19]+0.037*[#  23]+0.037*[#  31]+0.035*[#  21]+0.035*[#  29]
          +0.010*[#  24]+0.010*[#  25]+0.010*[#  32]+0.010*[#  33]
    |psi|^2 = 0.502
==== e(  36) =     2.36573 eV ==== 
     psi = 0.276*[#  20]+0.033*[#  26]+0.033*[#  34]+0.031*[#  22]+0.031*[#  30]
          +0.009*[#  27]+0.009*[#  28]+0.009*[#  35]+0.009*[#  36]
    |psi|^2 = 0.442
==== e(  37) =     2.82120 eV ==== 
     psi = 0.003*[#  19]
    |psi|^2 = 0.007
==== e(  38) =     2.90517 eV ==== 
     psi = 0.002*[#  20]
    |psi|^2 = 0.007
==== e(  39) =     2.95526 eV ==== 
     psi = 0.087*[#  19]+0.009*[#  21]+0.009*[#  29]+0.009*[#  23]+0.009*[#  31]
          +0.008*[#  24]+0.008*[#  25]+0.008*[#  32]+0.008*[#  33]+0.002*[#   9]
          
    |psi|^2 = 0.157
==== e(  40) =     3.10069 eV ==== 
     psi = 0.098*[#  20]+0.011*[#  26]+0.011*[#  34]+0.010*[#  22]+0.010*[#  30]
          +0.009*[#  27]+0.009*[#  28]+0.009*[#  35]+0.009*[#  36]+0.003*[#  14]
          
    |psi|^2 = 0.183

 k =   0.0000000000  0.2165063509  0.0000000000
==== e(   1) =  -105.99971 eV ==== 
     psi = 0.995*[#   1]+0.001*[#  23]+0.001*[#  31]
    |psi|^2 = 1.000
==== e(   2) =  -104.62915 eV ==== 
     psi = 0.995*[#   2]+0.001*[#  26]+0.001*[#  34]
    |psi|^2 = 1.000
==== e(   3) =   -66.47337 eV ==== 
     psi = 0.999*[#   3]
    |psi|^2 = 1.000
==== e(   4) =   -66.42009 eV ==== 
     psi = 0.500*[#   4]+0.500*[#   5]
    |psi|^2 = 1.000
==== e(   5) =   -66.41998 eV ==== 
     psi = 0.500*[#   4]+0.500*[#   5]
    |psi|^2 = 1.000
==== e(   6) =   -64.96401 eV ==== 
     psi = 0.999*[#   6]
    |psi|^2 = 1.000
==== e(   7) =   -64.95316 eV ==== 
     psi = 0.500*[#   7]+0.500*[#   8]
    |psi|^2 = 1.000
==== e(   8) =   -64.95304 eV ==== 
     psi = 0.500*[#   7]+0.500*[#   8]
    |psi|^2 = 1.000
==== e(   9) =   -15.53499 eV ==== 
     psi = 0.387*[#  21]+0.387*[#  29]+0.203*[#  19]+0.005*[#  23]+0.005*[#  31]
          +0.003*[#  24]+0.003*[#  25]+0.003*[#  32]+0.003*[#  33]
    |psi|^2 = 0.999
==== e(  10) =   -15.30588 eV ==== 
     psi = 0.384*[#  22]+0.384*[#  30]+0.208*[#  20]+0.005*[#  26]+0.005*[#  34]
          +0.003*[#  27]+0.003*[#  28]+0.003*[#  35]+0.003*[#  36]
    |psi|^2 = 0.999
==== e(  11) =   -14.71764 eV ==== 
     psi = 0.489*[#  21]+0.489*[#  29]+0.003*[#  10]+0.003*[#  11]+0.002*[#  24]
          +0.002*[#  25]+0.002*[#  32]+0.002*[#  33]+0.002*[#  23]+0.002*[#  31]
          +0.001*[#  12]+0.001*[#  13]
    |psi|^2 = 0.998
==== e(  12) =   -14.45685 eV ==== 
     psi = 0.489*[#  22]+0.489*[#  30]+0.002*[#  15]+0.002*[#  16]+0.002*[#  27]
          +0.002*[#  28]+0.002*[#  35]+0.002*[#  36]+0.002*[#  26]+0.002*[#  34]
          +0.001*[#  17]+0.001*[#  18]
    |psi|^2 = 0.998
==== e(  13) =    -6.62205 eV ==== 
     psi = 0.355*[#  23]+0.355*[#  31]+0.097*[#  19]+0.079*[#   9]+0.039*[#  21]
          +0.039*[#  29]+0.006*[#  24]+0.006*[#  25]+0.006*[#  32]+0.006*[#  33]
          +0.002*[#   1]+0.001*[#  12]+0.001*[#  13]
    |psi|^2 = 0.995
==== e(  14) =    -6.41233 eV ==== 
     psi = 0.357*[#  26]+0.357*[#  34]+0.103*[#  20]+0.058*[#  14]+0.043*[#  22]
          +0.043*[#  30]+0.007*[#  27]+0.007*[#  28]+0.007*[#  35]+0.007*[#  36]
          +0.002*[#   2]
    |psi|^2 = 0.994
==== e(  15) =    -6.10955 eV ==== 
     psi = 0.163*[#  12]+0.163*[#  13]+0.110*[#  10]+0.110*[#  11]+0.088*[#  24]
          +0.088*[#  25]+0.088*[#  32]+0.088*[#  33]+0.046*[#  23]+0.046*[#  31]
          
    |psi|^2 = 0.992
==== e(  16) =    -5.79329 eV ==== 
     psi = 0.215*[#  10]+0.215*[#  11]+0.159*[#  12]+0.159*[#  13]+0.062*[#  24]
          +0.062*[#  25]+0.062*[#  32]+0.062*[#  33]
    |psi|^2 = 0.995
==== e(  17) =    -5.33304 eV ==== 
     psi = 0.144*[#  27]+0.144*[#  28]+0.144*[#  35]+0.144*[#  36]+0.119*[#  17]
          +0.119*[#  18]+0.067*[#  26]+0.067*[#  34]+0.013*[#  15]+0.013*[#  16]
          +0.004*[#  14]+0.003*[#  20]+0.002*[#  22]+0.002*[#  30]
    |psi|^2 = 0.982
==== e(  18) =    -5.02277 eV ==== 
     psi = 0.146*[#  10]+0.146*[#  11]+0.117*[#  24]+0.117*[#  25]+0.117*[#  32]
          +0.117*[#  33]+0.109*[#   9]+0.028*[#  19]+0.017*[#  12]+0.017*[#  13]
          +0.015*[#  23]+0.015*[#  31]+0.010*[#  21]+0.010*[#  29]
    |psi|^2 = 0.983
==== e(  19) =    -4.54592 eV ==== 
     psi = 0.162*[#  17]+0.162*[#  18]+0.135*[#  27]+0.135*[#  28]+0.135*[#  35]
          +0.135*[#  36]+0.062*[#  15]+0.062*[#  16]
    |psi|^2 = 0.986
==== e(  20) =    -4.45225 eV ==== 
     psi = 0.149*[#  27]+0.149*[#  28]+0.149*[#  35]+0.149*[#  36]+0.121*[#  14]
          +0.079*[#  15]+0.079*[#  16]+0.037*[#  20]+0.022*[#  26]+0.022*[#  34]
          +0.013*[#  22]+0.013*[#  30]
    |psi|^2 = 0.983
==== e(  21) =    -4.41498 eV ==== 
     psi = 0.205*[#  10]+0.205*[#  11]+0.185*[#  12]+0.185*[#  13]+0.052*[#  24]
          +0.052*[#  25]+0.052*[#  32]+0.052*[#  33]
    |psi|^2 = 0.988
==== e(  22) =    -4.15521 eV ==== 
     psi = 0.395*[#   9]+0.158*[#  10]+0.158*[#  11]+0.081*[#  12]+0.081*[#  13]
          +0.027*[#  19]+0.015*[#  24]+0.015*[#  25]+0.015*[#  32]+0.015*[#  33]
          +0.008*[#  21]+0.008*[#  29]+0.007*[#  23]+0.007*[#  31]
    |psi|^2 = 0.989
==== e(  23) =    -3.70311 eV ==== 
     psi = 0.236*[#  15]+0.236*[#  16]+0.091*[#  27]+0.091*[#  28]+0.091*[#  35]
          +0.091*[#  36]+0.074*[#  17]+0.074*[#  18]
    |psi|^2 = 0.984
==== e(  24) =    -3.55792 eV ==== 
     psi = 0.337*[#  23]+0.337*[#  31]+0.071*[#  24]+0.071*[#  25]+0.071*[#  32]
          +0.071*[#  33]+0.009*[#   9]+0.008*[#  12]+0.008*[#  13]
    |psi|^2 = 0.983
==== e(  25) =    -3.52868 eV ==== 
     psi = 0.361*[#   9]+0.111*[#  12]+0.111*[#  13]+0.072*[#  23]+0.072*[#  31]
          +0.054*[#  24]+0.054*[#  25]+0.054*[#  32]+0.054*[#  33]+0.022*[#  10]
          +0.022*[#  11]+0.002*[#  19]+0.002*[#  21]+0.002*[#  29]
    |psi|^2 = 0.993
==== e(  26) =    -3.34900 eV ==== 
     psi = 0.189*[#  14]+0.128*[#  15]+0.128*[#  16]+0.106*[#  26]+0.106*[#  34]
          +0.093*[#  17]+0.093*[#  18]+0.030*[#  27]+0.030*[#  28]+0.030*[#  35]
          +0.030*[#  36]+0.013*[#  20]+0.002*[#  22]+0.002*[#  30]
    |psi|^2 = 0.981
==== e(  27) =    -3.30090 eV ==== 
     psi = 0.292*[#  26]+0.292*[#  34]+0.082*[#  14]+0.071*[#  15]+0.071*[#  16]
          +0.036*[#  17]+0.036*[#  18]+0.024*[#  27]+0.024*[#  28]+0.024*[#  35]
          +0.024*[#  36]+0.004*[#  20]+0.001*[#  22]+0.001*[#  30]
    |psi|^2 = 0.984
==== e(  28) =    -3.20472 eV ==== 
     psi = 0.183*[#  24]+0.183*[#  25]+0.183*[#  32]+0.183*[#  33]+0.107*[#  12]
          +0.107*[#  13]+0.017*[#  10]+0.017*[#  11]
    |psi|^2 = 0.981
==== e(  29) =    -2.96377 eV ==== 
     psi = 0.112*[#  12]+0.112*[#  13]+0.103*[#  24]+0.103*[#  25]+0.103*[#  32]
          +0.103*[#  33]+0.094*[#  23]+0.094*[#  31]+0.056*[#  10]+0.056*[#  11]
          +0.038*[#   9]+0.009*[#  21]+0.009*[#  29]
    |psi|^2 = 0.993
==== e(  30) =    -2.85811 eV ==== 
     psi = 0.527*[#  14]+0.085*[#  17]+0.085*[#  18]+0.040*[#  27]+0.040*[#  28]
          +0.040*[#  35]+0.040*[#  36]+0.040*[#  26]+0.040*[#  34]+0.026*[#  15]
          +0.026*[#  16]
    |psi|^2 = 0.991
==== e(  31) =    -2.74809 eV ==== 
     psi = 0.162*[#  17]+0.162*[#  18]+0.141*[#  27]+0.141*[#  28]+0.141*[#  35]
          +0.141*[#  36]+0.047*[#  15]+0.047*[#  16]
    |psi|^2 = 0.981
==== e(  32) =    -2.13824 eV ==== 
     psi = 0.196*[#  24]+0.196*[#  25]+0.196*[#  32]+0.196*[#  33]+0.061*[#  10]
          +0.061*[#  11]+0.046*[#  12]+0.046*[#  13]
    |psi|^2 = 0.997
==== e(  33) =    -1.58996 eV ==== 
     psi = 0.171*[#  15]+0.171*[#  16]+0.155*[#  17]+0.155*[#  18]+0.057*[#  27]
          +0.057*[#  28]+0.057*[#  35]+0.057*[#  36]+0.038*[#  26]+0.038*[#  34]
          +0.009*[#  22]+0.009*[#  30]+0.006*[#  14]
    |psi|^2 = 0.982
==== e(  34) =    -1.01815 eV ==== 
     psi = 0.148*[#  15]+0.148*[#  16]+0.126*[#  27]+0.126*[#  28]+0.126*[#  35]
          +0.126*[#  36]+0.096*[#  17]+0.096*[#  18]
    |psi|^2 = 0.993
==== e(  35) =     2.43350 eV ==== 
     psi = 0.365*[#  19]+0.034*[#  23]+0.034*[#  31]+0.029*[#  21]+0.029*[#  29]
          +0.026*[#  24]+0.026*[#  25]+0.026*[#  32]+0.026*[#  33]+0.001*[#   9]
          
    |psi|^2 = 0.601
==== e(  36) =     2.63518 eV ==== 
     psi = 0.342*[#  20]+0.033*[#  26]+0.033*[#  34]+0.027*[#  27]+0.027*[#  28]
          +0.027*[#  35]+0.027*[#  36]+0.027*[#  22]+0.027*[#  30]+0.002*[#  14]
          +0.001*[#  15]+0.001*[#  16]
    |psi|^2 = 0.578
==== e(  37) =     2.67075 eV ==== 
     psi = 0.030*[#  19]+0.004*[#  23]+0.004*[#  31]+0.003*[#  21]+0.003*[#  29]
          
    |psi|^2 = 0.046
==== e(  38) =     2.76156 eV ==== 
     psi = 0.026*[#  20]+0.004*[#  26]+0.004*[#  34]+0.003*[#  22]+0.003*[#  30]
          
    |psi|^2 = 0.041
==== e(  39) =     3.00446 eV ==== 
     psi = 0.001*[#  19]
    |psi|^2 = 0.006
==== e(  40) =     3.10413 eV ==== 
     psi = 0.004*[#  20]+0.002*[#  17]+0.002*[#  18]
    |psi|^2 = 0.012

 k =   0.0000000000  0.2886751346  0.0000000000
==== e(   1) =  -105.99971 eV ==== 
     psi = 0.995*[#   1]+0.001*[#  23]+0.001*[#  31]
    |psi|^2 = 1.000
==== e(   2) =  -104.62915 eV ==== 
     psi = 0.995*[#   2]+0.001*[#  26]+0.001*[#  34]
    |psi|^2 = 1.000
==== e(   3) =   -66.47335 eV ==== 
     psi = 0.999*[#   3]
    |psi|^2 = 1.000
==== e(   4) =   -66.42018 eV ==== 
     psi = 0.500*[#   4]+0.500*[#   5]
    |psi|^2 = 1.000
==== e(   5) =   -66.42000 eV ==== 
     psi = 0.500*[#   4]+0.500*[#   5]
    |psi|^2 = 1.000
==== e(   6) =   -64.96399 eV ==== 
     psi = 0.999*[#   6]
    |psi|^2 = 1.000
==== e(   7) =   -64.95327 eV ==== 
     psi = 0.499*[#   7]+0.499*[#   8]
    |psi|^2 = 1.000
==== e(   8) =   -64.95306 eV ==== 
     psi = 0.500*[#   7]+0.500*[#   8]
    |psi|^2 = 1.000
==== e(   9) =   -15.35280 eV ==== 
     psi = 0.405*[#  21]+0.405*[#  29]+0.163*[#  19]+0.005*[#  23]+0.005*[#  31]
          +0.004*[#  24]+0.004*[#  25]+0.004*[#  32]+0.004*[#  33]
    |psi|^2 = 0.999
==== e(  10) =   -15.12024 eV ==== 
     psi = 0.402*[#  22]+0.402*[#  30]+0.167*[#  20]+0.005*[#  26]+0.005*[#  34]
          +0.004*[#  27]+0.004*[#  28]+0.004*[#  35]+0.004*[#  36]
    |psi|^2 = 0.999
==== e(  11) =   -14.63456 eV ==== 
     psi = 0.487*[#  21]+0.487*[#  29]+0.004*[#  10]+0.004*[#  11]+0.002*[#  12]
          +0.002*[#  13]+0.002*[#  24]+0.002*[#  25]+0.002*[#  32]+0.002*[#  33]
          
    |psi|^2 = 0.998
==== e(  12) =   -14.37091 eV ==== 
     psi = 0.488*[#  22]+0.488*[#  30]+0.004*[#  15]+0.004*[#  16]+0.002*[#  27]
          +0.002*[#  28]+0.002*[#  35]+0.002*[#  36]+0.002*[#  17]+0.002*[#  18]
          
    |psi|^2 = 0.998
==== e(  13) =    -6.55595 eV ==== 
     psi = 0.277*[#  23]+0.277*[#  31]+0.135*[#  19]+0.045*[#  21]+0.045*[#  29]
          +0.039*[#   9]+0.038*[#  24]+0.038*[#  25]+0.038*[#  32]+0.038*[#  33]
          +0.010*[#  12]+0.010*[#  13]+0.002*[#   1]+0.002*[#  10]+0.002*[#  11]
          
    |psi|^2 = 0.994
==== e(  14) =    -6.35680 eV ==== 
     psi = 0.279*[#  26]+0.279*[#  34]+0.142*[#  20]+0.048*[#  22]+0.048*[#  30]
          +0.038*[#  27]+0.038*[#  28]+0.038*[#  35]+0.038*[#  36]+0.028*[#  14]
          +0.005*[#  17]+0.005*[#  18]+0.003*[#  15]+0.003*[#  16]+0.002*[#   2]
          
    |psi|^2 = 0.994
==== e(  15) =    -6.27849 eV ==== 
     psi = 0.128*[#  12]+0.128*[#  13]+0.112*[#  24]+0.112*[#  25]+0.112*[#  32]
          +0.112*[#  33]+0.071*[#  23]+0.071*[#  31]+0.068*[#  10]+0.068*[#  11]
          +0.004*[#   9]
    |psi|^2 = 0.989
==== e(  16) =    -5.78123 eV ==== 
     psi = 0.236*[#  10]+0.236*[#  11]+0.136*[#  12]+0.136*[#  13]+0.063*[#  24]
          +0.063*[#  25]+0.063*[#  32]+0.063*[#  33]
    |psi|^2 = 0.995
==== e(  17) =    -5.74610 eV ==== 
     psi = 0.156*[#  27]+0.156*[#  28]+0.156*[#  35]+0.156*[#  36]+0.093*[#  26]
          +0.093*[#  34]+0.070*[#  17]+0.070*[#  18]+0.015*[#  14]+0.003*[#  15]
          +0.003*[#  16]+0.002*[#  20]+0.002*[#  22]+0.002*[#  30]
    |psi|^2 = 0.979
==== e(  18) =    -5.51802 eV ==== 
     psi = 0.123*[#   9]+0.120*[#  10]+0.120*[#  11]+0.109*[#  24]+0.109*[#  25]
          +0.109*[#  32]+0.109*[#  33]+0.078*[#  23]+0.078*[#  31]+0.018*[#  19]
          +0.005*[#  21]+0.005*[#  29]
    |psi|^2 = 0.985
==== e(  19) =    -4.92443 eV ==== 
     psi = 0.137*[#  27]+0.137*[#  28]+0.137*[#  35]+0.137*[#  36]+0.108*[#  14]
          +0.078*[#  26]+0.078*[#  34]+0.061*[#  15]+0.061*[#  16]+0.020*[#  20]
          +0.010*[#  17]+0.010*[#  18]+0.006*[#  22]+0.006*[#  30]
    |psi|^2 = 0.986
==== e(  20) =    -4.53117 eV ==== 
     psi = 0.145*[#  27]+0.145*[#  28]+0.145*[#  35]+0.145*[#  36]+0.123*[#  17]
          +0.123*[#  18]+0.079*[#  15]+0.079*[#  16]
    |psi|^2 = 0.986
==== e(  21) =    -4.47536 eV ==== 
     psi = 0.172*[#  12]+0.172*[#  13]+0.156*[#  10]+0.156*[#  11]+0.083*[#  24]
          +0.083*[#  25]+0.083*[#  32]+0.083*[#  33]
    |psi|^2 = 0.987
==== e(  22) =    -4.21209 eV ==== 
     psi = 0.339*[#   9]+0.212*[#  10]+0.212*[#  11]+0.063*[#  12]+0.063*[#  13]
          +0.022*[#  19]+0.014*[#  24]+0.014*[#  25]+0.014*[#  32]+0.014*[#  33]
          +0.007*[#  21]+0.007*[#  29]+0.004*[#  23]+0.004*[#  31]
    |psi|^2 = 0.988
==== e(  23) =    -3.90498 eV ==== 
     psi = 0.135*[#  12]+0.135*[#  13]+0.124*[#  23]+0.124*[#  31]+0.110*[#  24]
          +0.110*[#  25]+0.110*[#  32]+0.110*[#  33]+0.017*[#   9]+0.003*[#  21]
          +0.003*[#  29]+0.002*[#  19]
    |psi|^2 = 0.984
==== e(  24) =    -3.88210 eV ==== 
     psi = 0.190*[#  15]+0.190*[#  16]+0.123*[#  27]+0.123*[#  28]+0.123*[#  35]
          +0.123*[#  36]+0.055*[#  17]+0.055*[#  18]
    |psi|^2 = 0.983
==== e(  25) =    -3.60197 eV ==== 
     psi = 0.421*[#   9]+0.115*[#  23]+0.115*[#  31]+0.069*[#  12]+0.069*[#  13]
          +0.037*[#  10]+0.037*[#  11]+0.032*[#  24]+0.032*[#  25]+0.032*[#  32]
          +0.032*[#  33]+0.002*[#  19]
    |psi|^2 = 0.994
==== e(  26) =    -3.50942 eV ==== 
     psi = 0.234*[#  26]+0.234*[#  34]+0.093*[#  17]+0.093*[#  18]+0.057*[#  27]
          +0.057*[#  28]+0.057*[#  35]+0.057*[#  36]+0.049*[#  14]+0.020*[#  15]
          +0.020*[#  16]+0.008*[#  20]
    |psi|^2 = 0.981
==== e(  27) =    -3.42100 eV ==== 
     psi = 0.164*[#  12]+0.164*[#  13]+0.152*[#  24]+0.152*[#  25]+0.152*[#  32]
          +0.152*[#  33]+0.023*[#  10]+0.023*[#  11]
    |psi|^2 = 0.981
==== e(  28) =    -3.31357 eV ==== 
     psi = 0.205*[#  14]+0.188*[#  15]+0.188*[#  16]+0.115*[#  26]+0.115*[#  34]
          +0.063*[#  17]+0.063*[#  18]+0.011*[#  20]+0.007*[#  27]+0.007*[#  28]
          +0.007*[#  35]+0.007*[#  36]+0.003*[#  22]+0.003*[#  30]
    |psi|^2 = 0.983
==== e(  29) =    -2.95962 eV ==== 
     psi = 0.267*[#  23]+0.267*[#  31]+0.088*[#  12]+0.088*[#  13]+0.052*[#  10]
          +0.052*[#  11]+0.049*[#   9]+0.030*[#  24]+0.030*[#  25]+0.030*[#  32]
          +0.030*[#  33]+0.007*[#  21]+0.007*[#  29]
    |psi|^2 = 0.995
==== e(  30) =    -2.91076 eV ==== 
     psi = 0.571*[#  14]+0.100*[#  17]+0.100*[#  18]+0.045*[#  26]+0.045*[#  34]
          +0.025*[#  15]+0.025*[#  16]+0.020*[#  27]+0.020*[#  28]+0.020*[#  35]
          +0.020*[#  36]+0.001*[#  20]
    |psi|^2 = 0.992
==== e(  31) =    -2.86029 eV ==== 
     psi = 0.243*[#  17]+0.243*[#  18]+0.099*[#  27]+0.099*[#  28]+0.099*[#  35]
          +0.099*[#  36]+0.050*[#  15]+0.050*[#  16]
    |psi|^2 = 0.984
==== e(  32) =    -2.19089 eV ==== 
     psi = 0.195*[#  24]+0.195*[#  25]+0.195*[#  32]+0.195*[#  33]+0.083*[#  10]
          +0.083*[#  11]+0.026*[#  12]+0.026*[#  13]
    |psi|^2 = 0.998
==== e(  33) =    -1.61348 eV ==== 
     psi = 0.187*[#  15]+0.187*[#  16]+0.145*[#  17]+0.145*[#  18]+0.088*[#  26]
          +0.088*[#  34]+0.029*[#  27]+0.029*[#  28]+0.029*[#  35]+0.029*[#  36]
          +0.011*[#  14]+0.010*[#  22]+0.010*[#  30]
    |psi|^2 = 0.986
==== e(  34) =    -1.05448 eV ==== 
     psi = 0.176*[#  15]+0.176*[#  16]+0.124*[#  27]+0.124*[#  28]+0.124*[#  35]
          +0.124*[#  36]+0.073*[#  17]+0.073*[#  18]
    |psi|^2 = 0.993
==== e(  35) =     1.95439 eV ==== 
     psi = 0.308*[#  19]+0.029*[#  24]+0.029*[#  25]+0.029*[#  32]+0.029*[#  33]
          +0.022*[#  23]+0.022*[#  31]+0.016*[#  21]+0.016*[#  29]+0.001*[#  12]
          +0.001*[#  13]+0.001*[#   1]+0.001*[#   9]
    |psi|^2 = 0.507
==== e(  36) =     2.15447 eV ==== 
     psi = 0.278*[#  20]+0.030*[#  27]+0.030*[#  28]+0.030*[#  35]+0.030*[#  36]
          +0.020*[#  26]+0.020*[#  34]+0.014*[#  22]+0.014*[#  30]+0.002*[#  17]
          +0.002*[#  18]+0.002*[#  14]
    |psi|^2 = 0.473
==== e(  37) =     2.93237 eV ==== 
     psi = 0.114*[#  19]+0.011*[#  23]+0.011*[#  31]+0.008*[#  21]+0.008*[#  29]
          +0.003*[#  24]+0.003*[#  25]+0.003*[#  32]+0.003*[#  33]
    |psi|^2 = 0.168
==== e(  38) =     3.05156 eV ==== 
     psi = 0.126*[#  20]+0.013*[#  26]+0.013*[#  34]+0.009*[#  22]+0.009*[#  30]
          +0.004*[#  27]+0.004*[#  28]+0.004*[#  35]+0.004*[#  36]+0.001*[#  15]
          +0.001*[#  16]+0.001*[#  17]+0.001*[#  18]
    |psi|^2 = 0.190
==== e(  39) =     3.22580 eV ==== 
     psi = 0.005*[#  19]+0.001*[#  12]+0.001*[#  13]
    |psi|^2 = 0.013
==== e(  40) =     3.33709 eV ==== 
     psi = 0.002*[#  17]+0.002*[#  18]+0.002*[#  20]
    |psi|^2 = 0.012

 k =   0.0000000000  0.3608439182  0.0000000000
==== e(   1) =  -105.99970 eV ==== 
     psi = 0.995*[#   1]
    |psi|^2 = 1.000
==== e(   2) =  -104.62915 eV ==== 
     psi = 0.995*[#   2]
    |psi|^2 = 1.000
==== e(   3) =   -66.47334 eV ==== 
     psi = 0.999*[#   3]
    |psi|^2 = 1.000
==== e(   4) =   -66.42028 eV ==== 
     psi = 0.499*[#   4]+0.499*[#   5]
    |psi|^2 = 1.000
==== e(   5) =   -66.42003 eV ==== 
     psi = 0.500*[#   4]+0.500*[#   5]
    |psi|^2 = 1.000
==== e(   6) =   -64.96398 eV ==== 
     psi = 0.999*[#   6]
    |psi|^2 = 1.000
==== e(   7) =   -64.95337 eV ==== 
     psi = 0.499*[#   7]+0.499*[#   8]
    |psi|^2 = 1.000
==== e(   8) =   -64.95309 eV ==== 
     psi = 0.500*[#   7]+0.500*[#   8]
    |psi|^2 = 1.000
==== e(   9) =   -15.14718 eV ==== 
     psi = 0.426*[#  21]+0.426*[#  29]+0.117*[#  19]+0.005*[#  23]+0.005*[#  31]
          +0.004*[#  24]+0.004*[#  25]+0.004*[#  32]+0.004*[#  33]
    |psi|^2 = 0.999
==== e(  10) =   -14.91015 eV ==== 
     psi = 0.424*[#  22]+0.424*[#  30]+0.120*[#  20]+0.005*[#  26]+0.005*[#  34]
          +0.004*[#  27]+0.004*[#  28]+0.004*[#  35]+0.004*[#  36]
    |psi|^2 = 0.999
==== e(  11) =   -14.55700 eV ==== 
     psi = 0.486*[#  21]+0.486*[#  29]+0.006*[#  10]+0.006*[#  11]+0.003*[#  12]
          +0.003*[#  13]+0.002*[#  19]+0.001*[#  24]+0.001*[#  25]+0.001*[#  32]
          +0.001*[#  33]
    |psi|^2 = 0.999
==== e(  12) =   -14.29068 eV ==== 
     psi = 0.487*[#  22]+0.487*[#  30]+0.005*[#  15]+0.005*[#  16]+0.002*[#  17]
          +0.002*[#  18]+0.002*[#  20]+0.002*[#  27]+0.002*[#  28]+0.002*[#  35]
          +0.002*[#  36]
    |psi|^2 = 0.998
==== e(  13) =    -6.78734 eV ==== 
     psi = 0.162*[#  19]+0.123*[#  24]+0.123*[#  25]+0.123*[#  32]+0.123*[#  33]
          +0.100*[#  23]+0.100*[#  31]+0.035*[#  21]+0.035*[#  29]+0.027*[#  12]
          +0.027*[#  13]+0.006*[#  10]+0.006*[#  11]+0.002*[#   1]+0.001*[#   9]
          
    |psi|^2 = 0.990
==== e(  14) =    -6.58853 eV ==== 
     psi = 0.175*[#  20]+0.120*[#  27]+0.120*[#  28]+0.120*[#  35]+0.120*[#  36]
          +0.104*[#  26]+0.104*[#  34]+0.039*[#  22]+0.039*[#  30]+0.016*[#  17]
          +0.016*[#  18]+0.007*[#  15]+0.007*[#  16]+0.002*[#   2]+0.001*[#  14]
          
    |psi|^2 = 0.990
==== e(  15) =    -6.40750 eV ==== 
     psi = 0.125*[#  24]+0.125*[#  25]+0.125*[#  32]+0.125*[#  33]+0.111*[#  23]
          +0.111*[#  31]+0.066*[#  12]+0.066*[#  13]+0.051*[#  10]+0.051*[#  11]
          +0.012*[#  19]+0.007*[#  21]+0.007*[#  29]+0.006*[#   9]
    |psi|^2 = 0.989
==== e(  16) =    -6.02593 eV ==== 
     psi = 0.159*[#  26]+0.159*[#  34]+0.140*[#  27]+0.140*[#  28]+0.140*[#  35]
          +0.140*[#  36]+0.028*[#  17]+0.028*[#  18]+0.015*[#  14]+0.008*[#  22]
          +0.008*[#  30]+0.006*[#  20]+0.005*[#  15]+0.005*[#  16]
    |psi|^2 = 0.982
==== e(  17) =    -5.77292 eV ==== 
     psi = 0.259*[#  10]+0.259*[#  11]+0.112*[#  12]+0.112*[#  13]+0.063*[#  24]
          +0.063*[#  25]+0.063*[#  32]+0.063*[#  33]
    |psi|^2 = 0.996
==== e(  18) =    -5.69675 eV ==== 
     psi = 0.214*[#  23]+0.214*[#  31]+0.132*[#   9]+0.096*[#  10]+0.096*[#  11]
          +0.048*[#  24]+0.048*[#  25]+0.048*[#  32]+0.048*[#  33]+0.020*[#  12]
          +0.020*[#  13]+0.002*[#  21]+0.002*[#  29]
    |psi|^2 = 0.989
==== e(  19) =    -5.11116 eV ==== 
     psi = 0.188*[#  26]+0.188*[#  34]+0.117*[#  14]+0.095*[#  27]+0.095*[#  28]
          +0.095*[#  35]+0.095*[#  36]+0.040*[#  15]+0.040*[#  16]+0.017*[#  17]
          +0.017*[#  18]+0.002*[#  20]
    |psi|^2 = 0.987
==== e(  20) =    -4.51748 eV ==== 
     psi = 0.153*[#  27]+0.153*[#  28]+0.153*[#  35]+0.153*[#  36]+0.106*[#  15]
          +0.106*[#  16]+0.081*[#  17]+0.081*[#  18]
    |psi|^2 = 0.986
==== e(  21) =    -4.51434 eV ==== 
     psi = 0.149*[#  12]+0.149*[#  13]+0.119*[#  24]+0.119*[#  25]+0.119*[#  32]
          +0.119*[#  33]+0.106*[#  10]+0.106*[#  11]
    |psi|^2 = 0.984
==== e(  22) =    -4.36563 eV ==== 
     psi = 0.173*[#   9]+0.118*[#  10]+0.118*[#  11]+0.088*[#  24]+0.088*[#  25]
          +0.088*[#  32]+0.088*[#  33]+0.077*[#  23]+0.077*[#  31]+0.028*[#  12]
          +0.028*[#  13]+0.008*[#  21]+0.008*[#  29]
    |psi|^2 = 0.990
==== e(  23) =    -4.20373 eV ==== 
     psi = 0.179*[#  12]+0.179*[#  13]+0.160*[#   9]+0.123*[#  10]+0.123*[#  11]
          +0.053*[#  23]+0.053*[#  31]+0.023*[#  19]+0.022*[#  24]+0.022*[#  25]
          +0.022*[#  32]+0.022*[#  33]+0.002*[#  21]+0.002*[#  29]
    |psi|^2 = 0.985
==== e(  24) =    -4.04236 eV ==== 
     psi = 0.155*[#  27]+0.155*[#  28]+0.155*[#  35]+0.155*[#  36]+0.141*[#  15]
          +0.141*[#  16]+0.038*[#  17]+0.038*[#  18]
    |psi|^2 = 0.980
==== e(  25) =    -3.76578 eV ==== 
     psi = 0.257*[#  26]+0.257*[#  34]+0.109*[#  17]+0.109*[#  18]+0.054*[#  27]
          +0.054*[#  28]+0.054*[#  35]+0.054*[#  36]+0.021*[#  14]+0.008*[#  20]
          +0.001*[#  22]+0.001*[#  30]
    |psi|^2 = 0.984
==== e(  26) =    -3.68743 eV ==== 
     psi = 0.471*[#   9]+0.089*[#  23]+0.089*[#  31]+0.089*[#  12]+0.089*[#  13]
          +0.045*[#  10]+0.045*[#  11]+0.018*[#  24]+0.018*[#  25]+0.018*[#  32]
          +0.018*[#  33]+0.003*[#  19]
    |psi|^2 = 0.994
==== e(  27) =    -3.64637 eV ==== 
     psi = 0.224*[#  12]+0.224*[#  13]+0.119*[#  24]+0.119*[#  25]+0.119*[#  32]
          +0.119*[#  33]+0.030*[#  10]+0.030*[#  11]
    |psi|^2 = 0.984
==== e(  28) =    -3.32861 eV ==== 
     psi = 0.239*[#  14]+0.223*[#  15]+0.223*[#  16]+0.068*[#  17]+0.068*[#  18]
          +0.066*[#  26]+0.066*[#  34]+0.014*[#  20]+0.003*[#  22]+0.003*[#  30]
          +0.002*[#  27]+0.002*[#  28]+0.002*[#  35]+0.002*[#  36]
    |psi|^2 = 0.981
==== e(  29) =    -2.98127 eV ==== 
     psi = 0.320*[#  17]+0.320*[#  18]+0.062*[#  27]+0.062*[#  28]+0.062*[#  35]
          +0.062*[#  36]+0.050*[#  15]+0.050*[#  16]
    |psi|^2 = 0.987
==== e(  30) =    -2.97219 eV ==== 
     psi = 0.579*[#  14]+0.113*[#  17]+0.113*[#  18]+0.043*[#  26]+0.043*[#  34]
          +0.028*[#  15]+0.028*[#  16]+0.010*[#  27]+0.010*[#  28]+0.010*[#  35]
          +0.010*[#  36]+0.004*[#  20]
    |psi|^2 = 0.993
==== e(  31) =    -2.79721 eV ==== 
     psi = 0.302*[#  23]+0.302*[#  31]+0.080*[#  12]+0.080*[#  13]+0.050*[#  10]
          +0.050*[#  11]+0.049*[#   9]+0.018*[#  24]+0.018*[#  25]+0.018*[#  32]
          +0.018*[#  33]+0.005*[#  21]+0.005*[#  29]
    |psi|^2 = 0.995
==== e(  32) =    -2.22753 eV ==== 
     psi = 0.191*[#  24]+0.191*[#  25]+0.191*[#  32]+0.191*[#  33]+0.103*[#  10]
          +0.103*[#  11]+0.014*[#  12]+0.014*[#  13]
    |psi|^2 = 0.998
==== e(  33) =    -1.49817 eV ==== 
     psi = 0.185*[#  15]+0.185*[#  16]+0.134*[#  17]+0.134*[#  18]+0.125*[#  26]
          +0.125*[#  34]+0.017*[#  27]+0.017*[#  28]+0.017*[#  35]+0.017*[#  36]
          +0.016*[#  14]+0.009*[#  22]+0.009*[#  30]
    |psi|^2 = 0.987
==== e(  34) =    -1.07404 eV ==== 
     psi = 0.198*[#  15]+0.198*[#  16]+0.121*[#  27]+0.121*[#  28]+0.121*[#  35]
          +0.121*[#  36]+0.056*[#  17]+0.056*[#  18]
    |psi|^2 = 0.994
==== e(  35) =     1.49123 eV ==== 
     psi = 0.384*[#  19]+0.036*[#  24]+0.036*[#  25]+0.036*[#  32]+0.036*[#  33]
          +0.020*[#  23]+0.020*[#  31]+0.013*[#  21]+0.013*[#  29]+0.003*[#  12]
          +0.003*[#  13]+0.001*[#   1]
    |psi|^2 = 0.602
==== e(  36) =     1.70352 eV ==== 
     psi = 0.360*[#  20]+0.037*[#  27]+0.037*[#  28]+0.037*[#  35]+0.037*[#  36]
          +0.019*[#  26]+0.019*[#  34]+0.013*[#  22]+0.013*[#  30]+0.004*[#  17]
          +0.004*[#  18]+0.001*[#   2]
    |psi|^2 = 0.582
==== e(  37) =     3.05938 eV ==== 
     psi = 0.084*[#  19]+0.008*[#  23]+0.008*[#  31]+0.004*[#  21]+0.004*[#  29]
          +0.002*[#  24]+0.002*[#  25]+0.002*[#  32]+0.002*[#  33]+0.002*[#  12]
          +0.002*[#  13]+0.001*[#  10]+0.001*[#  11]
    |psi|^2 = 0.125
==== e(  38) =     3.20636 eV ==== 
     psi = 0.096*[#  20]+0.010*[#  26]+0.010*[#  34]+0.005*[#  22]+0.005*[#  30]
          +0.003*[#  17]+0.003*[#  18]+0.003*[#  27]+0.003*[#  28]+0.003*[#  35]
          +0.003*[#  36]+0.002*[#  15]+0.002*[#  16]
    |psi|^2 = 0.147
==== e(  39) =     3.48116 eV ==== 
     psi = 0.023*[#  19]+0.002*[#  23]+0.002*[#  31]+0.002*[#  24]+0.002*[#  25]
          +0.002*[#  32]+0.002*[#  33]+0.001*[#  21]+0.001*[#  29]
    |psi|^2 = 0.040
==== e(  40) =     3.61613 eV ==== 
     psi = 0.020*[#  20]+0.002*[#  17]+0.002*[#  18]+0.002*[#  26]+0.002*[#  34]
          +0.002*[#  27]+0.002*[#  28]+0.002*[#  35]+0.002*[#  36]+0.001*[#  14]
          +0.001*[#  22]+0.001*[#  30]
    |psi|^2 = 0.039

 k =   0.0000000000  0.4330127019  0.0000000000
==== e(   1) =  -105.99970 eV ==== 
     psi = 0.995*[#   1]
    |psi|^2 = 1.000
==== e(   2) =  -104.62914 eV ==== 
     psi = 0.995*[#   2]
    |psi|^2 = 1.000
==== e(   3) =   -66.47332 eV ==== 
     psi = 0.999*[#   3]
    |psi|^2 = 1.000
==== e(   4) =   -66.42035 eV ==== 
     psi = 0.499*[#   4]+0.499*[#   5]
    |psi|^2 = 1.000
==== e(   5) =   -66.42005 eV ==== 
     psi = 0.500*[#   4]+0.500*[#   5]
    |psi|^2 = 1.000
==== e(   6) =   -64.96396 eV ==== 
     psi = 0.999*[#   6]
    |psi|^2 = 1.000
==== e(   7) =   -64.95346 eV ==== 
     psi = 0.499*[#   7]+0.499*[#   8]
    |psi|^2 = 1.000
==== e(   8) =   -64.95311 eV ==== 
     psi = 0.500*[#   7]+0.500*[#   8]
    |psi|^2 = 1.000
==== e(   9) =   -14.94270 eV ==== 
     psi = 0.451*[#  21]+0.451*[#  29]+0.070*[#  19]+0.004*[#  23]+0.004*[#  31]
          +0.004*[#  24]+0.004*[#  25]+0.004*[#  32]+0.004*[#  33]
    |psi|^2 = 0.999
==== e(  10) =   -14.70055 eV ==== 
     psi = 0.449*[#  22]+0.449*[#  30]+0.072*[#  20]+0.005*[#  26]+0.005*[#  34]
          +0.004*[#  27]+0.004*[#  28]+0.004*[#  35]+0.004*[#  36]
    |psi|^2 = 0.998
==== e(  11) =   -14.50489 eV ==== 
     psi = 0.484*[#  21]+0.484*[#  29]+0.007*[#  10]+0.007*[#  11]+0.006*[#  19]
          +0.004*[#  12]+0.004*[#  13]
    |psi|^2 = 0.999
==== e(  12) =   -14.23687 eV ==== 
     psi = 0.486*[#  22]+0.486*[#  30]+0.007*[#  20]+0.006*[#  15]+0.006*[#  16]
          +0.003*[#  17]+0.003*[#  18]
    |psi|^2 = 0.999
==== e(  13) =    -7.18488 eV ==== 
     psi = 0.180*[#  19]+0.155*[#  24]+0.155*[#  25]+0.155*[#  32]+0.155*[#  33]
          +0.043*[#  23]+0.043*[#  31]+0.021*[#  21]+0.021*[#  29]+0.016*[#  12]
          +0.016*[#  13]+0.014*[#  10]+0.014*[#  11]+0.002*[#   1]
    |psi|^2 = 0.991
==== e(  14) =    -6.98964 eV ==== 
     psi = 0.189*[#  20]+0.154*[#  27]+0.154*[#  28]+0.154*[#  35]+0.154*[#  36]
          +0.045*[#  26]+0.045*[#  34]+0.023*[#  22]+0.023*[#  30]+0.013*[#  17]
          +0.013*[#  18]+0.010*[#  15]+0.010*[#  16]+0.002*[#   2]
    |psi|^2 = 0.991
==== e(  15) =    -6.50805 eV ==== 
     psi = 0.159*[#  24]+0.159*[#  25]+0.159*[#  32]+0.159*[#  33]+0.097*[#  23]
          +0.097*[#  31]+0.036*[#  12]+0.036*[#  13]+0.031*[#  10]+0.031*[#  11]
          +0.009*[#  19]+0.006*[#  21]+0.006*[#  29]+0.001*[#   9]
    |psi|^2 = 0.987
==== e(  16) =    -6.21058 eV ==== 
     psi = 0.167*[#  27]+0.167*[#  28]+0.167*[#  35]+0.167*[#  36]+0.125*[#  26]
          +0.125*[#  34]+0.011*[#  17]+0.011*[#  18]+0.009*[#  22]+0.009*[#  30]
          +0.009*[#  20]+0.005*[#  15]+0.005*[#  16]+0.004*[#  14]
    |psi|^2 = 0.983
==== e(  17) =    -5.76972 eV ==== 
     psi = 0.280*[#  10]+0.280*[#  11]+0.091*[#  12]+0.091*[#  13]+0.063*[#  24]
          +0.063*[#  25]+0.063*[#  32]+0.063*[#  33]
    |psi|^2 = 0.996
==== e(  18) =    -5.63101 eV ==== 
     psi = 0.246*[#  23]+0.246*[#  31]+0.099*[#   9]+0.097*[#  10]+0.097*[#  11]
          +0.064*[#  12]+0.064*[#  13]+0.016*[#  24]+0.016*[#  25]+0.016*[#  32]
          +0.016*[#  33]+0.006*[#  21]+0.006*[#  29]
    |psi|^2 = 0.991
==== e(  19) =    -5.01204 eV ==== 
     psi = 0.280*[#  26]+0.280*[#  34]+0.114*[#  14]+0.052*[#  27]+0.052*[#  28]
          +0.052*[#  35]+0.052*[#  36]+0.025*[#  17]+0.025*[#  18]+0.025*[#  15]
          +0.025*[#  16]
    |psi|^2 = 0.986
==== e(  20) =    -4.62094 eV ==== 
     psi = 0.172*[#  23]+0.172*[#  31]+0.088*[#   9]+0.078*[#  24]+0.078*[#  25]
          +0.078*[#  32]+0.078*[#  33]+0.066*[#  12]+0.066*[#  13]+0.050*[#  10]
          +0.050*[#  11]+0.005*[#  21]+0.005*[#  29]+0.002*[#  19]
    |psi|^2 = 0.991
==== e(  21) =    -4.52129 eV ==== 
     psi = 0.162*[#  24]+0.162*[#  25]+0.162*[#  32]+0.162*[#  33]+0.108*[#  12]
          +0.108*[#  13]+0.059*[#  10]+0.059*[#  11]
    |psi|^2 = 0.980
==== e(  22) =    -4.50704 eV ==== 
     psi = 0.152*[#  27]+0.152*[#  28]+0.152*[#  35]+0.152*[#  36]+0.148*[#  15]
          +0.148*[#  16]+0.043*[#  17]+0.043*[#  18]
    |psi|^2 = 0.988
==== e(  23) =    -4.25779 eV ==== 
     psi = 0.292*[#   9]+0.190*[#  10]+0.190*[#  11]+0.104*[#  12]+0.104*[#  13]
          +0.029*[#  23]+0.029*[#  31]+0.020*[#  19]+0.005*[#  24]+0.005*[#  25]
          +0.005*[#  32]+0.005*[#  33]+0.003*[#  21]+0.003*[#  29]
    |psi|^2 = 0.984
==== e(  24) =    -4.16720 eV ==== 
     psi = 0.190*[#  27]+0.190*[#  28]+0.190*[#  35]+0.190*[#  36]+0.085*[#  15]
          +0.085*[#  16]+0.022*[#  17]+0.022*[#  18]
    |psi|^2 = 0.976
==== e(  25) =    -4.02783 eV ==== 
     psi = 0.280*[#  26]+0.280*[#  34]+0.107*[#  17]+0.107*[#  18]+0.045*[#  27]
          +0.045*[#  28]+0.045*[#  35]+0.045*[#  36]+0.018*[#  14]+0.008*[#  20]
          +0.002*[#  15]+0.002*[#  16]+0.002*[#  22]+0.002*[#  30]
    |psi|^2 = 0.986
==== e(  26) =    -3.85136 eV ==== 
     psi = 0.291*[#  12]+0.291*[#  13]+0.081*[#  24]+0.081*[#  25]+0.081*[#  32]
          +0.081*[#  33]+0.042*[#  10]+0.042*[#  11]
    |psi|^2 = 0.988
==== e(  27) =    -3.78946 eV ==== 
     psi = 0.458*[#   9]+0.122*[#  12]+0.122*[#  13]+0.068*[#  23]+0.068*[#  31]
          +0.053*[#  10]+0.053*[#  11]+0.010*[#  24]+0.010*[#  25]+0.010*[#  32]
          +0.010*[#  33]+0.010*[#  19]
    |psi|^2 = 0.994
==== e(  28) =    -3.33959 eV ==== 
     psi = 0.252*[#  14]+0.235*[#  15]+0.235*[#  16]+0.067*[#  17]+0.067*[#  18]
          +0.050*[#  26]+0.050*[#  34]+0.015*[#  20]+0.003*[#  22]+0.003*[#  30]
          
    |psi|^2 = 0.980
==== e(  29) =    -3.08505 eV ==== 
     psi = 0.386*[#  17]+0.386*[#  18]+0.048*[#  15]+0.048*[#  16]+0.031*[#  27]
          +0.031*[#  28]+0.031*[#  35]+0.031*[#  36]
    |psi|^2 = 0.991
==== e(  30) =    -3.05150 eV ==== 
     psi = 0.579*[#  14]+0.132*[#  17]+0.132*[#  18]+0.031*[#  26]+0.031*[#  34]
          +0.028*[#  15]+0.028*[#  16]+0.011*[#  20]+0.005*[#  27]+0.005*[#  28]
          +0.005*[#  35]+0.005*[#  36]
    |psi|^2 = 0.993
==== e(  31) =    -2.65229 eV ==== 
     psi = 0.300*[#  23]+0.300*[#  31]+0.078*[#  12]+0.078*[#  13]+0.056*[#   9]
          +0.053*[#  10]+0.053*[#  11]+0.017*[#  24]+0.017*[#  25]+0.017*[#  32]
          +0.017*[#  33]+0.004*[#  21]+0.004*[#  29]+0.001*[#  19]
    |psi|^2 = 0.995
==== e(  32) =    -2.25092 eV ==== 
     psi = 0.187*[#  24]+0.187*[#  25]+0.187*[#  32]+0.187*[#  33]+0.118*[#  10]
          +0.118*[#  11]+0.008*[#  12]+0.008*[#  13]
    |psi|^2 = 0.998
==== e(  33) =    -1.35778 eV ==== 
     psi = 0.181*[#  15]+0.181*[#  16]+0.141*[#  26]+0.141*[#  34]+0.126*[#  17]
          +0.126*[#  18]+0.021*[#  14]+0.014*[#  27]+0.014*[#  28]+0.014*[#  35]
          +0.014*[#  36]+0.008*[#  22]+0.008*[#  30]+0.002*[#  20]
    |psi|^2 = 0.989
==== e(  34) =    -1.08285 eV ==== 
     psi = 0.215*[#  15]+0.215*[#  16]+0.119*[#  27]+0.119*[#  28]+0.119*[#  35]
          +0.119*[#  36]+0.045*[#  17]+0.045*[#  18]
    |psi|^2 = 0.994
==== e(  35) =     1.13700 eV ==== 
     psi = 0.473*[#  19]+0.041*[#  24]+0.041*[#  25]+0.041*[#  32]+0.041*[#  33]
          +0.018*[#  23]+0.018*[#  31]+0.011*[#  21]+0.011*[#  29]+0.005*[#  12]
          +0.005*[#  13]+0.002*[#   1]
    |psi|^2 = 0.710
==== e(  36) =     1.36635 eV ==== 
     psi = 0.452*[#  20]+0.043*[#  27]+0.043*[#  28]+0.043*[#  35]+0.043*[#  36]
          +0.019*[#  26]+0.019*[#  34]+0.011*[#  22]+0.011*[#  30]+0.008*[#  17]
          +0.008*[#  18]+0.002*[#   2]
    |psi|^2 = 0.700
==== e(  37) =     3.05352 eV ==== 
     psi = 0.051*[#  19]+0.007*[#  23]+0.007*[#  31]+0.002*[#  21]+0.002*[#  29]
          +0.001*[#  12]+0.001*[#  13]+0.001*[#  10]+0.001*[#  11]+0.001*[#  24]
          +0.001*[#  25]+0.001*[#  32]+0.001*[#  33]
    |psi|^2 = 0.078
==== e(  38) =     3.20821 eV ==== 
     psi = 0.059*[#  20]+0.008*[#  26]+0.008*[#  34]+0.002*[#  22]+0.002*[#  30]
          +0.002*[#  15]+0.002*[#  16]+0.002*[#  17]+0.002*[#  18]+0.001*[#  27]
          +0.001*[#  28]+0.001*[#  35]+0.001*[#  36]
    |psi|^2 = 0.094
==== e(  39) =     3.50001 eV ==== 
     psi = 0.004*[#  19]+0.002*[#  24]+0.002*[#  25]+0.002*[#  32]+0.002*[#  33]
          +0.002*[#  12]+0.002*[#  13]+0.001*[#   9]
    |psi|^2 = 0.017
==== e(  40) =     3.66819 eV ==== 
     psi = 0.003*[#  20]+0.003*[#  17]+0.003*[#  18]+0.002*[#  14]+0.002*[#  27]
          +0.002*[#  28]+0.002*[#  35]+0.002*[#  36]
    |psi|^2 = 0.021

 k =   0.0000000000  0.5051814855  0.0000000000
==== e(   1) =  -105.99970 eV ==== 
     psi = 0.995*[#   1]
    |psi|^2 = 1.000
==== e(   2) =  -104.62914 eV ==== 
     psi = 0.995*[#   2]
    |psi|^2 = 1.000
==== e(   3) =   -66.47331 eV ==== 
     psi = 0.999*[#   3]
    |psi|^2 = 1.000
==== e(   4) =   -66.42041 eV ==== 
     psi = 0.499*[#   4]+0.499*[#   5]
    |psi|^2 = 1.000
==== e(   5) =   -66.42006 eV ==== 
     psi = 0.500*[#   4]+0.500*[#   5]
    |psi|^2 = 1.000
==== e(   6) =   -64.96395 eV ==== 
     psi = 0.999*[#   6]
    |psi|^2 = 1.000
==== e(   7) =   -64.95352 eV ==== 
     psi = 0.499*[#   7]+0.499*[#   8]
    |psi|^2 = 1.000
==== e(   8) =   -64.95312 eV ==== 
     psi = 0.500*[#   7]+0.500*[#   8]
    |psi|^2 = 1.000
==== e(   9) =   -14.77286 eV ==== 
     psi = 0.476*[#  21]+0.476*[#  29]+0.027*[#  19]+0.004*[#  23]+0.004*[#  31]
          +0.002*[#  24]+0.002*[#  25]+0.002*[#  32]+0.002*[#  33]
    |psi|^2 = 0.998
==== e(  10) =   -14.52625 eV ==== 
     psi = 0.475*[#  22]+0.475*[#  30]+0.027*[#  20]+0.005*[#  26]+0.005*[#  34]
          +0.002*[#  27]+0.002*[#  28]+0.002*[#  35]+0.002*[#  36]
    |psi|^2 = 0.998
==== e(  11) =   -14.49344 eV ==== 
     psi = 0.478*[#  21]+0.478*[#  29]+0.018*[#  19]+0.008*[#  10]+0.008*[#  11]
          +0.005*[#  12]+0.005*[#  13]
    |psi|^2 = 0.999
==== e(  12) =   -14.22487 eV ==== 
     psi = 0.479*[#  22]+0.479*[#  30]+0.019*[#  20]+0.007*[#  15]+0.007*[#  16]
          +0.004*[#  17]+0.004*[#  18]
    |psi|^2 = 0.999
==== e(  13) =    -7.48271 eV ==== 
     psi = 0.197*[#  19]+0.164*[#  24]+0.164*[#  25]+0.164*[#  32]+0.164*[#  33]
          +0.030*[#  23]+0.030*[#  31]+0.019*[#  10]+0.019*[#  11]+0.011*[#  21]
          +0.011*[#  29]+0.010*[#  12]+0.010*[#  13]+0.002*[#   1]+0.001*[#   9]
          
    |psi|^2 = 0.994
==== e(  14) =    -7.28827 eV ==== 
     psi = 0.207*[#  20]+0.163*[#  27]+0.163*[#  28]+0.163*[#  35]+0.163*[#  36]
          +0.032*[#  26]+0.032*[#  34]+0.012*[#  15]+0.012*[#  16]+0.012*[#  22]
          +0.012*[#  30]+0.010*[#  17]+0.010*[#  18]+0.002*[#   2]+0.001*[#  14]
          
    |psi|^2 = 0.993
==== e(  15) =    -6.58165 eV ==== 
     psi = 0.188*[#  24]+0.188*[#  25]+0.188*[#  32]+0.188*[#  33]+0.091*[#  23]
          +0.091*[#  31]+0.011*[#  12]+0.011*[#  13]+0.009*[#  10]+0.009*[#  11]
          +0.005*[#  21]+0.005*[#  29]+0.003*[#  19]
    |psi|^2 = 0.986
==== e(  16) =    -6.35692 eV ==== 
     psi = 0.189*[#  27]+0.189*[#  28]+0.189*[#  35]+0.189*[#  36]+0.099*[#  26]
          +0.099*[#  34]+0.007*[#  22]+0.007*[#  30]+0.003*[#  17]+0.003*[#  18]
          +0.003*[#  20]+0.002*[#  15]+0.002*[#  16]
    |psi|^2 = 0.983
==== e(  17) =    -5.76996 eV ==== 
     psi = 0.294*[#  10]+0.294*[#  11]+0.078*[#  12]+0.078*[#  13]+0.063*[#  24]
          +0.063*[#  25]+0.063*[#  32]+0.063*[#  33]
    |psi|^2 = 0.997
==== e(  18) =    -5.58203 eV ==== 
     psi = 0.192*[#  23]+0.192*[#  31]+0.132*[#  12]+0.132*[#  13]+0.124*[#  10]
          +0.124*[#  11]+0.056*[#   9]+0.008*[#  21]+0.008*[#  29]+0.007*[#  24]
          +0.007*[#  25]+0.007*[#  32]+0.007*[#  33]
    |psi|^2 = 0.995
==== e(  19) =    -4.78785 eV ==== 
     psi = 0.306*[#  26]+0.306*[#  34]+0.104*[#  14]+0.051*[#  17]+0.051*[#  18]
          +0.031*[#  27]+0.031*[#  28]+0.031*[#  35]+0.031*[#  36]+0.021*[#  15]
          +0.021*[#  16]+0.002*[#  22]+0.002*[#  30]
    |psi|^2 = 0.986
==== e(  20) =    -4.68404 eV ==== 
     psi = 0.306*[#  23]+0.306*[#  31]+0.057*[#   9]+0.055*[#  24]+0.055*[#  25]
          +0.055*[#  32]+0.055*[#  33]+0.026*[#  12]+0.026*[#  13]+0.018*[#  10]
          +0.018*[#  11]+0.003*[#  19]+0.003*[#  21]+0.003*[#  29]
    |psi|^2 = 0.986
==== e(  21) =    -4.50115 eV ==== 
     psi = 0.212*[#  24]+0.212*[#  25]+0.212*[#  32]+0.212*[#  33]+0.045*[#  12]
          +0.045*[#  13]+0.019*[#  10]+0.019*[#  11]
    |psi|^2 = 0.975
==== e(  22) =    -4.50093 eV ==== 
     psi = 0.197*[#  15]+0.197*[#  16]+0.140*[#  27]+0.140*[#  28]+0.140*[#  35]
          +0.140*[#  36]+0.019*[#  17]+0.019*[#  18]
    |psi|^2 = 0.992
==== e(  23) =    -4.29952 eV ==== 
     psi = 0.410*[#   9]+0.193*[#  10]+0.193*[#  11]+0.055*[#  12]+0.055*[#  13]
          +0.022*[#  23]+0.022*[#  31]+0.012*[#  19]+0.004*[#  24]+0.004*[#  25]
          +0.004*[#  32]+0.004*[#  33]+0.003*[#  21]+0.003*[#  29]
    |psi|^2 = 0.984
==== e(  24) =    -4.26505 eV ==== 
     psi = 0.321*[#  26]+0.321*[#  34]+0.074*[#  17]+0.074*[#  18]+0.039*[#  27]
          +0.039*[#  28]+0.039*[#  35]+0.039*[#  36]+0.021*[#  14]+0.005*[#  15]
          +0.005*[#  16]+0.004*[#  20]+0.002*[#  22]+0.002*[#  30]
    |psi|^2 = 0.984
==== e(  25) =    -4.24587 eV ==== 
     psi = 0.225*[#  27]+0.225*[#  28]+0.225*[#  35]+0.225*[#  36]+0.028*[#  15]
          +0.028*[#  16]+0.007*[#  17]+0.007*[#  18]
    |psi|^2 = 0.971
==== e(  26) =    -4.00632 eV ==== 
     psi = 0.371*[#  12]+0.371*[#  13]+0.058*[#  10]+0.058*[#  11]+0.034*[#  24]
          +0.034*[#  25]+0.034*[#  32]+0.034*[#  33]
    |psi|^2 = 0.994
==== e(  27) =    -3.89408 eV ==== 
     psi = 0.404*[#   9]+0.174*[#  12]+0.174*[#  13]+0.070*[#  10]+0.070*[#  11]
          +0.030*[#  23]+0.030*[#  31]+0.022*[#  19]+0.005*[#  24]+0.005*[#  25]
          +0.005*[#  32]+0.005*[#  33]
    |psi|^2 = 0.995
==== e(  28) =    -3.34625 eV ==== 
     psi = 0.257*[#  14]+0.240*[#  15]+0.240*[#  16]+0.066*[#  17]+0.066*[#  18]
          +0.044*[#  26]+0.044*[#  34]+0.016*[#  20]+0.003*[#  22]+0.003*[#  30]
          
    |psi|^2 = 0.980
==== e(  29) =    -3.15357 eV ==== 
     psi = 0.431*[#  17]+0.431*[#  18]+0.047*[#  15]+0.047*[#  16]+0.009*[#  27]
          +0.009*[#  28]+0.009*[#  35]+0.009*[#  36]
    |psi|^2 = 0.994
==== e(  30) =    -3.12992 eV ==== 
     psi = 0.578*[#  14]+0.154*[#  17]+0.154*[#  18]+0.027*[#  15]+0.027*[#  16]
          +0.020*[#  20]+0.011*[#  26]+0.011*[#  34]+0.003*[#  27]+0.003*[#  28]
          +0.003*[#  35]+0.003*[#  36]
    |psi|^2 = 0.994
==== e(  31) =    -2.56384 eV ==== 
     psi = 0.290*[#  23]+0.290*[#  31]+0.077*[#  12]+0.077*[#  13]+0.065*[#   9]
          +0.056*[#  10]+0.056*[#  11]+0.019*[#  24]+0.019*[#  25]+0.019*[#  32]
          +0.019*[#  33]+0.004*[#  19]+0.004*[#  21]+0.004*[#  29]
    |psi|^2 = 0.996
==== e(  32) =    -2.26386 eV ==== 
     psi = 0.183*[#  24]+0.183*[#  25]+0.183*[#  32]+0.183*[#  33]+0.127*[#  10]
          +0.127*[#  11]+0.005*[#  12]+0.005*[#  13]
    |psi|^2 = 0.998
==== e(  33) =    -1.25986 eV ==== 
     psi = 0.179*[#  15]+0.179*[#  16]+0.144*[#  26]+0.144*[#  34]+0.120*[#  17]
          +0.120*[#  18]+0.026*[#  14]+0.015*[#  27]+0.015*[#  28]+0.015*[#  35]
          +0.015*[#  36]+0.007*[#  22]+0.007*[#  30]+0.006*[#  20]
    |psi|^2 = 0.991
==== e(  34) =    -1.08619 eV ==== 
     psi = 0.224*[#  15]+0.224*[#  16]+0.117*[#  27]+0.117*[#  28]+0.117*[#  35]
          +0.117*[#  36]+0.039*[#  17]+0.039*[#  18]
    |psi|^2 = 0.994
==== e(  35) =     0.92171 eV ==== 
     psi = 0.544*[#  19]+0.044*[#  24]+0.044*[#  25]+0.044*[#  32]+0.044*[#  33]
          +0.018*[#  23]+0.018*[#  31]+0.009*[#  21]+0.009*[#  29]+0.007*[#  12]
          +0.007*[#  13]+0.002*[#   1]
    |psi|^2 = 0.792
==== e(  36) =     1.16887 eV ==== 
     psi = 0.522*[#  20]+0.045*[#  27]+0.045*[#  28]+0.045*[#  35]+0.045*[#  36]
          +0.020*[#  26]+0.020*[#  34]+0.012*[#  17]+0.012*[#  18]+0.010*[#  22]
          +0.010*[#  30]+0.002*[#   2]
    |psi|^2 = 0.791
==== e(  37) =     2.99320 eV ==== 
     psi = 0.014*[#  19]+0.005*[#  23]+0.005*[#  31]
    |psi|^2 = 0.030
==== e(  38) =     3.14110 eV ==== 
     psi = 0.017*[#  20]+0.006*[#  26]+0.006*[#  34]
    |psi|^2 = 0.036
==== e(  39) =     3.53562 eV ==== 
     psi = 0.002*[#   9]+0.002*[#  12]+0.002*[#  13]+0.001*[#  10]+0.001*[#  11]
          +0.001*[#  24]+0.001*[#  25]+0.001*[#  32]+0.001*[#  33]
    |psi|^2 = 0.014
==== e(  40) =     3.71786 eV ==== 
     psi = 0.003*[#  14]+0.003*[#  17]+0.003*[#  18]+0.001*[#  15]+0.001*[#  16]
          +0.001*[#  27]+0.001*[#  28]+0.001*[#  35]+0.001*[#  36]
    |psi|^2 = 0.019

 k =   0.0000000000 -0.5773502692  0.0000000000
==== e(   1) =  -105.99970 eV ==== 
     psi = 0.995*[#   1]+0.001*[#  24]+0.001*[#  25]+0.001*[#  32]+0.001*[#  33]
          
    |psi|^2 = 1.000
==== e(   2) =  -104.62914 eV ==== 
     psi = 0.995*[#   2]+0.001*[#  27]+0.001*[#  28]+0.001*[#  35]+0.001*[#  36]
          
    |psi|^2 = 1.000
==== e(   3) =   -66.47331 eV ==== 
     psi = 0.999*[#   3]
    |psi|^2 = 1.000
==== e(   4) =   -66.42043 eV ==== 
     psi = 0.499*[#   4]+0.499*[#   5]
    |psi|^2 = 1.000
==== e(   5) =   -66.42006 eV ==== 
     psi = 0.500*[#   4]+0.500*[#   5]
    |psi|^2 = 1.000
==== e(   6) =   -64.96395 eV ==== 
     psi = 0.999*[#   6]
    |psi|^2 = 1.000
==== e(   7) =   -64.95354 eV ==== 
     psi = 0.499*[#   7]+0.499*[#   8]
    |psi|^2 = 1.000
==== e(   8) =   -64.95313 eV ==== 
     psi = 0.500*[#   7]+0.500*[#   8]
    |psi|^2 = 1.000
==== e(   9) =   -14.69547 eV ==== 
     psi = 0.492*[#  21]+0.492*[#  29]+0.004*[#  23]+0.004*[#  31]+0.001*[#  24]
          +0.001*[#  25]+0.001*[#  32]+0.001*[#  33]
    |psi|^2 = 0.997
==== e(  10) =   -14.50507 eV ==== 
     psi = 0.468*[#  21]+0.468*[#  29]+0.033*[#  19]+0.009*[#  10]+0.009*[#  11]
          +0.005*[#  12]+0.005*[#  13]
    |psi|^2 = 1.000
==== e(  11) =   -14.44747 eV ==== 
     psi = 0.492*[#  22]+0.492*[#  30]+0.004*[#  26]+0.004*[#  34]+0.001*[#  27]
          +0.001*[#  28]+0.001*[#  35]+0.001*[#  36]
    |psi|^2 = 0.997
==== e(  12) =   -14.23605 eV ==== 
     psi = 0.469*[#  22]+0.469*[#  30]+0.034*[#  20]+0.007*[#  15]+0.007*[#  16]
          +0.004*[#  17]+0.004*[#  18]
    |psi|^2 = 1.000
==== e(  13) =    -7.58985 eV ==== 
     psi = 0.204*[#  19]+0.166*[#  24]+0.166*[#  25]+0.166*[#  32]+0.166*[#  33]
          +0.027*[#  23]+0.027*[#  31]+0.020*[#  10]+0.020*[#  11]+0.009*[#  12]
          +0.009*[#  13]+0.006*[#  21]+0.006*[#  29]+0.002*[#   1]+0.002*[#   9]
          
    |psi|^2 = 0.995
==== e(  14) =    -7.39541 eV ==== 
     psi = 0.214*[#  20]+0.165*[#  27]+0.165*[#  28]+0.165*[#  35]+0.165*[#  36]
          +0.029*[#  26]+0.029*[#  34]+0.013*[#  15]+0.013*[#  16]+0.009*[#  17]
          +0.009*[#  18]+0.008*[#  22]+0.008*[#  30]+0.002*[#   2]+0.001*[#  14]
          
    |psi|^2 = 0.994
==== e(  15) =    -6.60847 eV ==== 
     psi = 0.199*[#  24]+0.199*[#  25]+0.199*[#  32]+0.199*[#  33]+0.089*[#  23]
          +0.089*[#  31]+0.005*[#  21]+0.005*[#  29]
    |psi|^2 = 0.985
==== e(  16) =    -6.41216 eV ==== 
     psi = 0.197*[#  27]+0.197*[#  28]+0.197*[#  35]+0.197*[#  36]+0.092*[#  26]
          +0.092*[#  34]+0.005*[#  22]+0.005*[#  30]
    |psi|^2 = 0.983
==== e(  17) =    -5.77054 eV ==== 
     psi = 0.298*[#  10]+0.298*[#  11]+0.073*[#  12]+0.073*[#  13]+0.063*[#  24]
          +0.063*[#  25]+0.063*[#  32]+0.063*[#  33]
    |psi|^2 = 0.997
==== e(  18) =    -5.58032 eV ==== 
     psi = 0.163*[#  12]+0.163*[#  13]+0.161*[#  23]+0.161*[#  31]+0.137*[#  10]
          +0.137*[#  11]+0.040*[#   9]+0.008*[#  21]+0.008*[#  29]+0.004*[#  24]
          +0.004*[#  25]+0.004*[#  32]+0.004*[#  33]
    |psi|^2 = 0.996
==== e(  19) =    -4.65535 eV ==== 
     psi = 0.396*[#  23]+0.396*[#  31]+0.047*[#  24]+0.047*[#  25]+0.047*[#  32]
          +0.047*[#  33]+0.002*[#  21]+0.002*[#  29]
    |psi|^2 = 0.982
==== e(  20) =    -4.60685 eV ==== 
     psi = 0.259*[#  26]+0.259*[#  34]+0.122*[#  14]+0.119*[#  17]+0.119*[#  18]
          +0.026*[#  15]+0.026*[#  16]+0.013*[#  27]+0.013*[#  28]+0.013*[#  35]
          +0.013*[#  36]+0.002*[#  22]+0.002*[#  30]+0.001*[#  20]
    |psi|^2 = 0.988
==== e(  21) =    -4.49901 eV ==== 
     psi = 0.222*[#  15]+0.222*[#  16]+0.132*[#  27]+0.132*[#  28]+0.132*[#  35]
          +0.132*[#  36]+0.012*[#  17]+0.012*[#  18]
    |psi|^2 = 0.994
==== e(  22) =    -4.48477 eV ==== 
     psi = 0.243*[#  24]+0.243*[#  25]+0.243*[#  32]+0.243*[#  33]
    |psi|^2 = 0.972
==== e(  23) =    -4.43461 eV ==== 
     psi = 0.391*[#  26]+0.391*[#  34]+0.048*[#  27]+0.048*[#  28]+0.048*[#  35]
          +0.048*[#  36]+0.002*[#  22]+0.002*[#  30]
    |psi|^2 = 0.980
==== e(  24) =    -4.32842 eV ==== 
     psi = 0.520*[#   9]+0.190*[#  10]+0.190*[#  11]+0.028*[#  12]+0.028*[#  13]
          +0.006*[#  19]+0.003*[#  24]+0.003*[#  25]+0.003*[#  32]+0.003*[#  33]
          +0.003*[#  21]+0.003*[#  29]+0.001*[#  23]+0.001*[#  31]
    |psi|^2 = 0.984
==== e(  25) =    -4.27264 eV ==== 
     psi = 0.242*[#  27]+0.242*[#  28]+0.242*[#  35]+0.242*[#  36]
    |psi|^2 = 0.968
==== e(  26) =    -4.06870 eV ==== 
     psi = 0.421*[#  12]+0.421*[#  13]+0.070*[#  10]+0.070*[#  11]+0.004*[#  24]
          +0.004*[#  25]+0.004*[#  32]+0.004*[#  33]
    |psi|^2 = 0.997
==== e(  27) =    -3.94324 eV ==== 
     psi = 0.362*[#   9]+0.207*[#  12]+0.207*[#  13]+0.084*[#  10]+0.084*[#  11]
          +0.032*[#  19]+0.004*[#  23]+0.004*[#  31]+0.003*[#  24]+0.003*[#  25]
          +0.003*[#  32]+0.003*[#  33]
    |psi|^2 = 0.996
==== e(  28) =    -3.34847 eV ==== 
     psi = 0.259*[#  14]+0.241*[#  15]+0.241*[#  16]+0.066*[#  17]+0.066*[#  18]
          +0.042*[#  26]+0.042*[#  34]+0.017*[#  20]+0.003*[#  22]+0.003*[#  30]
          
    |psi|^2 = 0.979
==== e(  29) =    -3.17736 eV ==== 
     psi = 0.447*[#  17]+0.447*[#  18]+0.047*[#  15]+0.047*[#  16]+0.002*[#  27]
          +0.002*[#  28]+0.002*[#  35]+0.002*[#  36]
    |psi|^2 = 0.995
==== e(  30) =    -3.16467 eV ==== 
     psi = 0.578*[#  14]+0.166*[#  17]+0.166*[#  18]+0.026*[#  15]+0.026*[#  16]
          +0.026*[#  20]+0.002*[#  27]+0.002*[#  28]+0.002*[#  35]+0.002*[#  36]
          
    |psi|^2 = 0.994
==== e(  31) =    -2.53544 eV ==== 
     psi = 0.285*[#  23]+0.285*[#  31]+0.076*[#  12]+0.076*[#  13]+0.069*[#   9]
          +0.058*[#  10]+0.058*[#  11]+0.020*[#  24]+0.020*[#  25]+0.020*[#  32]
          +0.020*[#  33]+0.005*[#  19]+0.003*[#  21]+0.003*[#  29]
    |psi|^2 = 0.997
==== e(  32) =    -2.26800 eV ==== 
     psi = 0.182*[#  24]+0.182*[#  25]+0.182*[#  32]+0.182*[#  33]+0.131*[#  10]
          +0.131*[#  11]+0.004*[#  12]+0.004*[#  13]
    |psi|^2 = 0.998
==== e(  33) =    -1.22666 eV ==== 
     psi = 0.179*[#  15]+0.179*[#  16]+0.143*[#  26]+0.143*[#  34]+0.118*[#  17]
          +0.118*[#  18]+0.029*[#  14]+0.015*[#  27]+0.015*[#  28]+0.015*[#  35]
          +0.015*[#  36]+0.009*[#  20]+0.006*[#  22]+0.006*[#  30]
    |psi|^2 = 0.992
==== e(  34) =    -1.08702 eV ==== 
     psi = 0.228*[#  15]+0.228*[#  16]+0.116*[#  27]+0.116*[#  28]+0.116*[#  35]
          +0.116*[#  36]+0.037*[#  17]+0.037*[#  18]
    |psi|^2 = 0.995
==== e(  35) =     0.85081 eV ==== 
     psi = 0.570*[#  19]+0.045*[#  24]+0.045*[#  25]+0.045*[#  32]+0.045*[#  33]
          +0.018*[#  23]+0.018*[#  31]+0.009*[#  21]+0.009*[#  29]+0.008*[#  12]
          +0.008*[#  13]+0.002*[#   1]
    |psi|^2 = 0.823
==== e(  36) =     1.10615 eV ==== 
     psi = 0.548*[#  20]+0.046*[#  27]+0.046*[#  28]+0.046*[#  35]+0.046*[#  36]
          +0.021*[#  26]+0.021*[#  34]+0.014*[#  17]+0.014*[#  18]+0.009*[#  22]
          +0.009*[#  30]+0.002*[#   2]
    |psi|^2 = 0.825
==== e(  37) =     2.95898 eV ==== 
     psi = 0.005*[#  23]+0.005*[#  31]
    |psi|^2 = 0.011
==== e(  38) =     3.10331 eV ==== 
     psi = 0.005*[#  26]+0.005*[#  34]
    |psi|^2 = 0.014
==== e(  39) =     3.67916 eV ==== 
     psi = 0.004*[#   9]+0.003*[#  10]+0.003*[#  11]+0.002*[#  23]+0.002*[#  31]
          +0.002*[#  12]+0.002*[#  13]
    |psi|^2 = 0.019
==== e(  40) =     3.83035 eV ==== 
     psi = 0.002*[#  23]+0.002*[#  31]+0.002*[#  24]+0.002*[#  25]+0.002*[#  32]
          +0.002*[#  33]
    |psi|^2 = 0.011

 k =   0.0625000000  0.1082531755  0.0000000000
==== e(   1) =  -105.99971 eV ==== 
     psi = 0.995*[#   1]+0.002*[#  23]+0.002*[#  31]
    |psi|^2 = 1.000
==== e(   2) =  -104.62916 eV ==== 
     psi = 0.995*[#   2]+0.002*[#  26]+0.002*[#  34]
    |psi|^2 = 1.000
==== e(   3) =   -66.47339 eV ==== 
     psi = 0.999*[#   3]
    |psi|^2 = 1.000
==== e(   4) =   -66.42000 eV ==== 
     psi = 0.500*[#   4]+0.500*[#   5]
    |psi|^2 = 1.000
==== e(   5) =   -66.41996 eV ==== 
     psi = 0.500*[#   4]+0.500*[#   5]
    |psi|^2 = 1.000
==== e(   6) =   -64.96403 eV ==== 
     psi = 0.999*[#   6]
    |psi|^2 = 1.000
==== e(   7) =   -64.95305 eV ==== 
     psi = 0.500*[#   7]+0.500*[#   8]
    |psi|^2 = 1.000
==== e(   8) =   -64.95301 eV ==== 
     psi = 0.500*[#   7]+0.500*[#   8]
    |psi|^2 = 1.000
==== e(   9) =   -15.70560 eV ==== 
     psi = 0.372*[#  21]+0.372*[#  29]+0.241*[#  19]+0.005*[#  23]+0.005*[#  31]
          +0.001*[#  24]+0.001*[#  25]+0.001*[#  32]+0.001*[#  33]
    |psi|^2 = 1.000
==== e(  10) =   -15.47937 eV ==== 
     psi = 0.369*[#  22]+0.369*[#  30]+0.246*[#  20]+0.005*[#  26]+0.005*[#  34]
          +0.001*[#  27]+0.001*[#  28]+0.001*[#  35]+0.001*[#  36]
    |psi|^2 = 1.000
==== e(  11) =   -14.80462 eV ==== 
     psi = 0.493*[#  21]+0.493*[#  29]+0.002*[#  23]+0.002*[#  31]
    |psi|^2 = 0.997
==== e(  12) =   -14.54678 eV ==== 
     psi = 0.493*[#  22]+0.493*[#  30]+0.002*[#  26]+0.002*[#  34]+0.001*[#  27]
          +0.001*[#  28]+0.001*[#  35]+0.001*[#  36]
    |psi|^2 = 0.997
==== e(  13) =    -6.77152 eV ==== 
     psi = 0.371*[#  23]+0.371*[#  31]+0.095*[#   9]+0.079*[#  19]+0.036*[#  21]
          +0.036*[#  29]+0.002*[#   1]
    |psi|^2 = 0.994
==== e(  14) =    -6.55469 eV ==== 
     psi = 0.377*[#  26]+0.377*[#  34]+0.083*[#  20]+0.073*[#  14]+0.040*[#  22]
          +0.040*[#  30]+0.002*[#   2]
    |psi|^2 = 0.994
==== e(  15) =    -5.92789 eV ==== 
     psi = 0.183*[#  12]+0.183*[#  13]+0.157*[#  10]+0.157*[#  11]+0.068*[#  24]
          +0.068*[#  25]+0.068*[#  32]+0.068*[#  33]+0.022*[#  23]+0.022*[#  31]
          
    |psi|^2 = 0.994
==== e(  16) =    -5.81050 eV ==== 
     psi = 0.196*[#  10]+0.196*[#  11]+0.180*[#  12]+0.180*[#  13]+0.061*[#  24]
          +0.061*[#  25]+0.061*[#  32]+0.061*[#  33]
    |psi|^2 = 0.995
==== e(  17) =    -4.87407 eV ==== 
     psi = 0.169*[#  17]+0.169*[#  18]+0.120*[#  27]+0.120*[#  28]+0.120*[#  35]
          +0.120*[#  36]+0.050*[#  26]+0.050*[#  34]+0.032*[#  15]+0.032*[#  16]
          
    |psi|^2 = 0.987
==== e(  18) =    -4.56636 eV ==== 
     psi = 0.196*[#  17]+0.196*[#  18]+0.124*[#  27]+0.124*[#  28]+0.124*[#  35]
          +0.124*[#  36]+0.050*[#  15]+0.050*[#  16]
    |psi|^2 = 0.987
==== e(  19) =    -4.41071 eV ==== 
     psi = 0.296*[#  10]+0.296*[#  11]+0.145*[#  12]+0.145*[#  13]+0.023*[#  24]
          +0.023*[#  25]+0.023*[#  32]+0.023*[#  33]+0.006*[#  23]+0.006*[#  31]
          
    |psi|^2 = 0.988
==== e(  20) =    -4.39237 eV ==== 
     psi = 0.209*[#  10]+0.209*[#  11]+0.158*[#  12]+0.158*[#  13]+0.065*[#   9]
          +0.044*[#  24]+0.044*[#  25]+0.044*[#  32]+0.044*[#  33]+0.008*[#  19]
          +0.003*[#  21]+0.003*[#  29]
    |psi|^2 = 0.988
==== e(  21) =    -4.03659 eV ==== 
     psi = 0.667*[#   9]+0.042*[#  10]+0.042*[#  11]+0.038*[#  12]+0.038*[#  13]
          +0.032*[#  19]+0.019*[#  24]+0.019*[#  25]+0.019*[#  32]+0.019*[#  33]
          +0.017*[#  23]+0.017*[#  31]+0.009*[#  21]+0.009*[#  29]
    |psi|^2 = 0.991
==== e(  22) =    -3.71286 eV ==== 
     psi = 0.186*[#  14]+0.127*[#  15]+0.127*[#  16]+0.111*[#  27]+0.111*[#  28]
          +0.111*[#  35]+0.111*[#  36]+0.028*[#  20]+0.025*[#  17]+0.025*[#  18]
          +0.010*[#  22]+0.010*[#  30]
    |psi|^2 = 0.982
==== e(  23) =    -3.65284 eV ==== 
     psi = 0.465*[#  23]+0.465*[#  31]+0.016*[#  12]+0.016*[#  13]+0.006*[#  24]
          +0.006*[#  25]+0.006*[#  32]+0.006*[#  33]+0.002*[#  21]+0.002*[#  29]
          
    |psi|^2 = 0.992
==== e(  24) =    -3.50834 eV ==== 
     psi = 0.287*[#  15]+0.287*[#  16]+0.099*[#  17]+0.099*[#  18]+0.043*[#  27]
          +0.043*[#  28]+0.043*[#  35]+0.043*[#  36]+0.018*[#  26]+0.018*[#  34]
          
    |psi|^2 = 0.983
==== e(  25) =    -3.37414 eV ==== 
     psi = 0.422*[#  26]+0.422*[#  34]+0.026*[#  27]+0.026*[#  28]+0.026*[#  35]
          +0.026*[#  36]+0.018*[#  15]+0.018*[#  16]+0.002*[#  17]+0.002*[#  18]
          +0.001*[#  22]+0.001*[#  30]
    |psi|^2 = 0.988
==== e(  26) =    -3.28782 eV ==== 
     psi = 0.376*[#  14]+0.172*[#  15]+0.172*[#  16]+0.097*[#  17]+0.097*[#  18]
          +0.018*[#  20]+0.008*[#  27]+0.008*[#  28]+0.008*[#  35]+0.008*[#  36]
          +0.007*[#  26]+0.007*[#  34]+0.004*[#  22]+0.004*[#  30]
    |psi|^2 = 0.986
==== e(  27) =    -3.24747 eV ==== 
     psi = 0.166*[#  24]+0.166*[#  25]+0.166*[#  32]+0.166*[#  33]+0.159*[#   9]
          +0.032*[#  12]+0.032*[#  13]+0.030*[#  23]+0.030*[#  31]+0.014*[#  10]
          +0.014*[#  11]+0.007*[#  19]+0.004*[#  21]+0.004*[#  29]
    |psi|^2 = 0.987
==== e(  28) =    -3.02477 eV ==== 
     psi = 0.209*[#  24]+0.209*[#  25]+0.209*[#  32]+0.209*[#  33]+0.067*[#  12]
          +0.067*[#  13]+0.006*[#  10]+0.006*[#  11]
    |psi|^2 = 0.982
==== e(  29) =    -2.77524 eV ==== 
     psi = 0.347*[#  14]+0.107*[#  27]+0.107*[#  28]+0.107*[#  35]+0.107*[#  36]
          +0.045*[#  17]+0.045*[#  18]+0.031*[#  26]+0.031*[#  34]+0.029*[#  15]
          +0.029*[#  16]+0.001*[#  20]+0.001*[#  22]+0.001*[#  30]
    |psi|^2 = 0.988
==== e(  30) =    -2.66339 eV ==== 
     psi = 0.193*[#  27]+0.193*[#  28]+0.193*[#  35]+0.193*[#  36]+0.078*[#  17]
          +0.078*[#  18]+0.027*[#  15]+0.027*[#  16]
    |psi|^2 = 0.981
==== e(  31) =    -2.38697 eV ==== 
     psi = 0.184*[#  24]+0.184*[#  25]+0.184*[#  32]+0.184*[#  33]+0.085*[#  12]
          +0.085*[#  13]+0.037*[#  10]+0.037*[#  11]+0.003*[#  21]+0.003*[#  29]
          +0.001*[#  23]+0.001*[#  31]
    |psi|^2 = 0.989
==== e(  32) =    -2.10384 eV ==== 
     psi = 0.186*[#  24]+0.186*[#  25]+0.186*[#  32]+0.186*[#  33]+0.088*[#  12]
          +0.088*[#  13]+0.036*[#  10]+0.036*[#  11]
    |psi|^2 = 0.995
==== e(  33) =    -1.24039 eV ==== 
[...]
     psi = 0.261*[#  15]+0.261*[#  16]+0.070*[#  17]+0.070*[#  18]+0.052*[#  26]
          +0.052*[#  34]+0.050*[#  27]+0.050*[#  28]+0.050*[#  35]+0.050*[#  36]
          +0.005*[#  14]+0.003*[#  22]+0.003*[#  30]+0.003*[#  20]
    |psi|^2 = 0.980
==== e(  34) =    -1.31319 eV ==== 
     psi = 0.214*[#  15]+0.214*[#  16]+0.116*[#  26]+0.116*[#  34]+0.095*[#  17]
          +0.095*[#  18]+0.031*[#  27]+0.031*[#  28]+0.031*[#  35]+0.031*[#  36]
          +0.005*[#  22]+0.005*[#  30]+0.001*[#  14]
    |psi|^2 = 0.986
==== e(  35) =     1.90094 eV ==== 
     psi = 0.534*[#  19]+0.063*[#  24]+0.063*[#  25]+0.063*[#  32]+0.063*[#  33]
          +0.006*[#  23]+0.006*[#  31]+0.003*[#   9]+0.003*[#   1]+0.002*[#  21]
          +0.002*[#  29]
    |psi|^2 = 0.809
==== e(  36) =     2.14699 eV ==== 
     psi = 0.516*[#  20]+0.064*[#  27]+0.064*[#  28]+0.064*[#  35]+0.064*[#  36]
          +0.007*[#  26]+0.007*[#  34]+0.005*[#  14]+0.003*[#   2]+0.002*[#  22]
          +0.002*[#  30]+0.001*[#  17]+0.001*[#  18]
    |psi|^2 = 0.803
==== e(  37) =     3.65465 eV ==== 
     psi = 0.004*[#  23]+0.004*[#  31]+0.002*[#  19]+0.002*[#  24]+0.002*[#  25]
          +0.002*[#  32]+0.002*[#  33]
    |psi|^2 = 0.019
==== e(  38) =     3.80811 eV ==== 
     psi = 0.004*[#  26]+0.004*[#  34]+0.002*[#  20]+0.002*[#  27]+0.002*[#  28]
          +0.002*[#  35]+0.002*[#  36]+0.002*[#  15]+0.002*[#  16]
    |psi|^2 = 0.023
==== e(  39) =     4.55294 eV ==== 
     psi = 0.007*[#  23]+0.007*[#  31]+0.004*[#  19]
    |psi|^2 = 0.022
==== e(  40) =     4.71148 eV ==== 
     psi = 0.008*[#  26]+0.008*[#  34]+0.005*[#  20]+0.001*[#  15]+0.001*[#  16]
          
    |psi|^2 = 0.028

 k =   0.2500000000  0.5773502692  0.0000000000
==== e(   1) =  -105.99970 eV ==== 
     psi = 0.995*[#   1]+0.001*[#  24]+0.001*[#  25]+0.001*[#  32]+0.001*[#  33]
          
    |psi|^2 = 1.000
==== e(   2) =  -104.62914 eV ==== 
     psi = 0.995*[#   2]+0.001*[#  27]+0.001*[#  28]+0.001*[#  35]+0.001*[#  36]
          
    |psi|^2 = 1.000
==== e(   3) =   -66.47330 eV ==== 
     psi = 0.999*[#   3]
    |psi|^2 = 1.000
==== e(   4) =   -66.42034 eV ==== 
     psi = 0.499*[#   4]+0.499*[#   5]
    |psi|^2 = 1.000
==== e(   5) =   -66.42021 eV ==== 
     psi = 0.499*[#   4]+0.499*[#   5]
    |psi|^2 = 1.000
==== e(   6) =   -64.96394 eV ==== 
     psi = 0.999*[#   6]
    |psi|^2 = 1.000
==== e(   7) =   -64.95344 eV ==== 
     psi = 0.499*[#   7]+0.499*[#   8]
    |psi|^2 = 1.000
==== e(   8) =   -64.95330 eV ==== 
     psi = 0.499*[#   7]+0.499*[#   8]
    |psi|^2 = 1.000
==== e(   9) =   -14.56072 eV ==== 
     psi = 0.488*[#  21]+0.488*[#  29]+0.003*[#  10]+0.003*[#  11]+0.002*[#  23]
          +0.002*[#  31]+0.002*[#  12]+0.002*[#  13]+0.002*[#  24]+0.002*[#  25]
          +0.002*[#  32]+0.002*[#  33]
    |psi|^2 = 0.998
==== e(  10) =   -14.46543 eV ==== 
     psi = 0.484*[#  21]+0.484*[#  29]+0.006*[#  10]+0.006*[#  11]+0.006*[#  19]
          +0.004*[#  12]+0.004*[#  13]
    |psi|^2 = 0.999
==== e(  11) =   -14.30422 eV ==== 
     psi = 0.488*[#  22]+0.488*[#  30]+0.003*[#  15]+0.003*[#  16]+0.003*[#  26]
          +0.003*[#  34]+0.002*[#  17]+0.002*[#  18]+0.002*[#  27]+0.002*[#  28]
          +0.002*[#  35]+0.002*[#  36]
    |psi|^2 = 0.998
==== e(  12) =   -14.19986 eV ==== 
     psi = 0.485*[#  22]+0.485*[#  30]+0.006*[#  20]+0.005*[#  15]+0.005*[#  16]
          +0.003*[#  17]+0.003*[#  18]
    |psi|^2 = 0.999
==== e(  13) =    -7.18278 eV ==== 
     psi = 0.245*[#  19]+0.170*[#  24]+0.170*[#  25]+0.170*[#  32]+0.170*[#  33]
          +0.013*[#  10]+0.013*[#  11]+0.013*[#  23]+0.013*[#  31]+0.007*[#   9]
          +0.002*[#  21]+0.002*[#  29]+0.002*[#  12]+0.002*[#  13]+0.002*[#   1]
          
    |psi|^2 = 0.996
==== e(  14) =    -7.00415 eV ==== 
     psi = 0.263*[#  20]+0.168*[#  27]+0.168*[#  28]+0.168*[#  35]+0.168*[#  36]
          +0.014*[#  26]+0.014*[#  34]+0.006*[#  15]+0.006*[#  16]+0.005*[#  14]
          +0.003*[#  22]+0.003*[#  30]+0.003*[#  17]+0.003*[#  18]+0.002*[#   2]
          
    |psi|^2 = 0.995
==== e(  15) =    -6.47347 eV ==== 
     psi = 0.171*[#  24]+0.171*[#  25]+0.171*[#  32]+0.171*[#  33]+0.091*[#  10]
          +0.091*[#  11]+0.058*[#  23]+0.058*[#  31]+0.002*[#  21]+0.002*[#  29]
          
    |psi|^2 = 0.986
==== e(  16) =    -6.17545 eV ==== 
     psi = 0.176*[#  24]+0.176*[#  25]+0.176*[#  32]+0.176*[#  33]+0.066*[#  10]
          +0.066*[#  11]+0.041*[#  23]+0.041*[#  31]+0.040*[#  19]+0.008*[#  12]
          +0.008*[#  13]+0.008*[#   9]
    |psi|^2 = 0.982
==== e(  17) =    -6.16251 eV ==== 
     psi = 0.178*[#  27]+0.178*[#  28]+0.178*[#  35]+0.178*[#  36]+0.096*[#  26]
          +0.096*[#  34]+0.030*[#  15]+0.030*[#  16]+0.005*[#  17]+0.005*[#  18]
          +0.004*[#  22]+0.004*[#  30]
    |psi|^2 = 0.982
==== e(  18) =    -5.90785 eV ==== 
     psi = 0.176*[#  27]+0.176*[#  28]+0.176*[#  35]+0.176*[#  36]+0.071*[#  26]
          +0.071*[#  34]+0.033*[#  20]+0.027*[#  15]+0.027*[#  16]+0.018*[#  17]
          +0.018*[#  18]+0.006*[#  14]
    |psi|^2 = 0.978
==== e(  19) =    -5.63061 eV ==== 
     psi = 0.142*[#  10]+0.142*[#  11]+0.092*[#  24]+0.092*[#  25]+0.092*[#  32]
          +0.092*[#  33]+0.084*[#  23]+0.084*[#  31]+0.083*[#  12]+0.083*[#  13]
          +0.004*[#  21]+0.004*[#  29]
    |psi|^2 = 0.991
==== e(  20) =    -5.49134 eV ==== 
     psi = 0.165*[#  23]+0.165*[#  31]+0.163*[#  12]+0.163*[#  13]+0.155*[#  10]
          +0.155*[#  11]+0.009*[#  21]+0.009*[#  29]+0.007*[#   9]+0.002*[#  24]
          +0.002*[#  25]+0.002*[#  32]+0.002*[#  33]
    |psi|^2 = 0.997
==== e(  21) =    -5.09983 eV ==== 
     psi = 0.149*[#  23]+0.149*[#  31]+0.131*[#  24]+0.131*[#  25]+0.131*[#  32]
          +0.131*[#  33]+0.069*[#  12]+0.069*[#  13]+0.007*[#  10]+0.007*[#  11]
          +0.003*[#  21]+0.003*[#  29]
    |psi|^2 = 0.981
==== e(  22) =    -5.04474 eV ==== 
     psi = 0.224*[#  27]+0.224*[#  28]+0.224*[#  35]+0.224*[#  36]+0.033*[#  15]
          +0.033*[#  16]+0.006*[#  26]+0.006*[#  34]
    |psi|^2 = 0.975
==== e(  23) =    -4.44366 eV ==== 
     psi = 0.305*[#  26]+0.305*[#  34]+0.070*[#  15]+0.070*[#  16]+0.056*[#  17]
          +0.056*[#  18]+0.031*[#  27]+0.031*[#  28]+0.031*[#  35]+0.031*[#  36]
          +0.003*[#  22]+0.003*[#  30]
    |psi|^2 = 0.993
==== e(  24) =    -4.36686 eV ==== 
     psi = 0.259*[#  26]+0.259*[#  34]+0.083*[#  15]+0.083*[#  16]+0.081*[#  17]
          +0.081*[#  18]+0.030*[#  27]+0.030*[#  28]+0.030*[#  35]+0.030*[#  36]
          +0.021*[#  14]+0.004*[#  22]+0.004*[#  30]+0.002*[#  20]
    |psi|^2 = 0.997
==== e(  25) =    -4.09410 eV ==== 
     psi = 0.956*[#   9]+0.010*[#  19]+0.004*[#  10]+0.004*[#  11]+0.003*[#  12]
          +0.003*[#  13]+0.003*[#  24]+0.003*[#  25]+0.003*[#  32]+0.003*[#  33]
          
    |psi|^2 = 0.993
==== e(  26) =    -3.85014 eV ==== 
     psi = 0.327*[#  12]+0.327*[#  13]+0.103*[#  10]+0.103*[#  11]+0.058*[#  23]
          +0.058*[#  31]+0.005*[#  24]+0.005*[#  25]+0.005*[#  32]+0.005*[#  33]
          
    |psi|^2 = 0.994
==== e(  27) =    -3.77275 eV ==== 
     psi = 0.266*[#  12]+0.266*[#  13]+0.160*[#  10]+0.160*[#  11]+0.024*[#  24]
          +0.024*[#  25]+0.024*[#  32]+0.024*[#  33]+0.021*[#  23]+0.021*[#  31]
          +0.001*[#  19]
    |psi|^2 = 0.994
==== e(  28) =    -3.30038 eV ==== 
     psi = 0.949*[#  14]+0.009*[#  20]+0.005*[#  15]+0.005*[#  16]+0.005*[#  26]
          +0.005*[#  34]+0.003*[#  17]+0.003*[#  18]
    |psi|^2 = 0.989
==== e(  29) =    -3.08170 eV ==== 
     psi = 0.362*[#  17]+0.362*[#  18]+0.101*[#  15]+0.101*[#  16]+0.021*[#  26]
          +0.021*[#  34]+0.006*[#  27]+0.006*[#  28]+0.006*[#  35]+0.006*[#  36]
          
    |psi|^2 = 0.993
==== e(  30) =    -3.02698 eV ==== 
     psi = 0.290*[#  17]+0.290*[#  18]+0.151*[#  15]+0.151*[#  16]+0.024*[#  26]
          +0.024*[#  34]+0.015*[#  27]+0.015*[#  28]+0.015*[#  35]+0.015*[#  36]
          +0.002*[#  20]
    |psi|^2 = 0.991
==== e(  31) =    -2.97474 eV ==== 
     psi = 0.152*[#  10]+0.152*[#  11]+0.139*[#  23]+0.139*[#  31]+0.092*[#  24]
          +0.092*[#  25]+0.092*[#  32]+0.092*[#  33]+0.016*[#  12]+0.016*[#  13]
          +0.002*[#  21]+0.002*[#  29]
    |psi|^2 = 0.989
==== e(  32) =    -2.72412 eV ==== 
     psi = 0.247*[#  23]+0.247*[#  31]+0.093*[#  10]+0.093*[#  11]+0.049*[#  12]
          +0.049*[#  13]+0.048*[#  24]+0.048*[#  25]+0.048*[#  32]+0.048*[#  33]
          +0.013*[#   9]+0.002*[#  21]+0.002*[#  29]+0.002*[#  19]
    |psi|^2 = 0.991
==== e(  33) =    -1.57439 eV ==== 
     psi = 0.258*[#  15]+0.258*[#  16]+0.071*[#  17]+0.071*[#  18]+0.058*[#  26]
          +0.058*[#  34]+0.050*[#  27]+0.050*[#  28]+0.050*[#  35]+0.050*[#  36]
          +0.004*[#  22]+0.004*[#  30]
    |psi|^2 = 0.980
==== e(  34) =    -1.37395 eV ==== 
     psi = 0.216*[#  15]+0.216*[#  16]+0.113*[#  26]+0.113*[#  34]+0.095*[#  17]
          +0.095*[#  18]+0.030*[#  27]+0.030*[#  28]+0.030*[#  35]+0.030*[#  36]
          +0.005*[#  22]+0.005*[#  30]+0.004*[#  14]+0.003*[#  20]
    |psi|^2 = 0.984
==== e(  35) =     1.84492 eV ==== 
     psi = 0.538*[#  19]+0.063*[#  24]+0.063*[#  25]+0.063*[#  32]+0.063*[#  33]
          +0.004*[#  23]+0.004*[#  31]+0.004*[#   9]+0.003*[#   1]+0.001*[#  21]
          +0.001*[#  29]
    |psi|^2 = 0.811
==== e(  36) =     2.08998 eV ==== 
     psi = 0.521*[#  20]+0.065*[#  27]+0.065*[#  28]+0.065*[#  35]+0.065*[#  36]
          +0.006*[#  14]+0.005*[#  26]+0.005*[#  34]+0.003*[#   2]+0.001*[#  22]
          +0.001*[#  30]+0.001*[#  17]+0.001*[#  18]
    |psi|^2 = 0.805
==== e(  37) =     4.00035 eV ==== 
     psi = 0.005*[#  23]+0.005*[#  31]+0.002*[#  24]+0.002*[#  25]+0.002*[#  32]
          +0.002*[#  33]+0.001*[#  10]+0.001*[#  11]+0.001*[#  19]
    |psi|^2 = 0.020
==== e(  38) =     4.16680 eV ==== 
     psi = 0.006*[#  26]+0.006*[#  34]+0.003*[#  15]+0.003*[#  16]+0.002*[#  27]
          +0.002*[#  28]+0.002*[#  35]+0.002*[#  36]
    |psi|^2 = 0.025
==== e(  39) =     4.17068 eV ==== 
     psi = 0.006*[#  23]+0.006*[#  31]
    |psi|^2 = 0.017
==== e(  40) =     4.32678 eV ==== 
     psi = 0.007*[#  26]+0.007*[#  34]+0.002*[#  15]+0.002*[#  16]
    |psi|^2 = 0.020

 k =   0.3125000000  0.5412658774  0.0000000000
==== e(   1) =  -105.99970 eV ==== 
     psi = 0.995*[#   1]+0.001*[#  24]+0.001*[#  25]+0.001*[#  32]+0.001*[#  33]
          
    |psi|^2 = 1.000
==== e(   2) =  -104.62914 eV ==== 
     psi = 0.995*[#   2]+0.001*[#  27]+0.001*[#  28]+0.001*[#  35]+0.001*[#  36]
          
    |psi|^2 = 1.000
==== e(   3) =   -66.47330 eV ==== 
     psi = 0.999*[#   3]
    |psi|^2 = 1.000
==== e(   4) =   -66.42031 eV ==== 
     psi = 0.499*[#   4]+0.499*[#   5]
    |psi|^2 = 1.000
==== e(   5) =   -66.42025 eV ==== 
     psi = 0.499*[#   4]+0.499*[#   5]
    |psi|^2 = 1.000
==== e(   6) =   -64.96394 eV ==== 
     psi = 0.999*[#   6]
    |psi|^2 = 1.000
==== e(   7) =   -64.95341 eV ==== 
     psi = 0.499*[#   7]+0.499*[#   8]
    |psi|^2 = 1.000
==== e(   8) =   -64.95334 eV ==== 
     psi = 0.499*[#   7]+0.499*[#   8]
    |psi|^2 = 1.000
==== e(   9) =   -14.53214 eV ==== 
     psi = 0.486*[#  21]+0.486*[#  29]+0.004*[#  10]+0.004*[#  11]+0.003*[#  12]
          +0.003*[#  13]+0.002*[#  19]+0.002*[#  23]+0.002*[#  31]+0.002*[#  24]
          +0.002*[#  25]+0.002*[#  32]+0.002*[#  33]
    |psi|^2 = 0.998
==== e(  10) =   -14.46856 eV ==== 
     psi = 0.488*[#  21]+0.488*[#  29]+0.006*[#  10]+0.006*[#  11]+0.004*[#  12]
          +0.004*[#  13]
    |psi|^2 = 0.999
==== e(  11) =   -14.27328 eV ==== 
     psi = 0.487*[#  22]+0.487*[#  30]+0.003*[#  15]+0.003*[#  16]+0.002*[#  17]
          +0.002*[#  18]+0.002*[#  20]+0.002*[#  26]+0.002*[#  34]+0.002*[#  27]
          +0.002*[#  28]+0.002*[#  35]+0.002*[#  36]
    |psi|^2 = 0.998
==== e(  12) =   -14.20460 eV ==== 
     psi = 0.489*[#  22]+0.489*[#  30]+0.005*[#  15]+0.005*[#  16]+0.003*[#  17]
          +0.003*[#  18]+0.001*[#  26]+0.001*[#  34]
    |psi|^2 = 0.998
==== e(  13) =    -7.07700 eV ==== 
     psi = 0.277*[#  19]+0.171*[#  24]+0.171*[#  25]+0.171*[#  32]+0.171*[#  33]
          +0.010*[#   9]+0.006*[#  10]+0.006*[#  11]+0.005*[#  23]+0.005*[#  31]
          +0.002*[#   1]+0.001*[#  21]+0.001*[#  29]
    |psi|^2 = 0.996
==== e(  14) =    -6.91203 eV ==== 
     psi = 0.293*[#  20]+0.169*[#  27]+0.169*[#  28]+0.169*[#  35]+0.169*[#  36]
          +0.007*[#  14]+0.004*[#  26]+0.004*[#  34]+0.002*[#  15]+0.002*[#  16]
          +0.002*[#   2]+0.001*[#  22]+0.001*[#  30]
    |psi|^2 = 0.996
==== e(  15) =    -6.44767 eV ==== 
     psi = 0.175*[#  24]+0.175*[#  25]+0.175*[#  32]+0.175*[#  33]+0.080*[#  10]
          +0.080*[#  11]+0.055*[#  23]+0.055*[#  31]+0.006*[#  12]+0.006*[#  13]
          
    |psi|^2 = 0.984
==== e(  16) =    -6.39247 eV ==== 
     psi = 0.166*[#  24]+0.166*[#  25]+0.166*[#  32]+0.166*[#  33]+0.107*[#  10]
          +0.107*[#  11]+0.046*[#  23]+0.046*[#  31]+0.014*[#  19]+0.002*[#   9]
          
    |psi|^2 = 0.986
==== e(  17) =    -6.15717 eV ==== 
     psi = 0.177*[#  27]+0.177*[#  28]+0.177*[#  35]+0.177*[#  36]+0.085*[#  26]
          +0.085*[#  34]+0.034*[#  15]+0.034*[#  16]+0.015*[#  17]+0.015*[#  18]
          +0.002*[#  22]+0.002*[#  30]
    |psi|^2 = 0.980
==== e(  18) =    -6.05316 eV ==== 
     psi = 0.170*[#  27]+0.170*[#  28]+0.170*[#  35]+0.170*[#  36]+0.095*[#  26]
          +0.095*[#  34]+0.041*[#  15]+0.041*[#  16]+0.009*[#  20]+0.007*[#  17]
          +0.007*[#  18]+0.003*[#  22]+0.003*[#  30]+0.002*[#  14]
    |psi|^2 = 0.981
==== e(  19) =    -5.54974 eV ==== 
     psi = 0.135*[#  10]+0.135*[#  11]+0.106*[#  12]+0.106*[#  13]+0.101*[#  23]
          +0.101*[#  31]+0.075*[#  24]+0.075*[#  25]+0.075*[#  32]+0.075*[#  33]
          +0.006*[#  21]+0.006*[#  29]
    |psi|^2 = 0.992
==== e(  20) =    -5.45082 eV ==== 
     psi = 0.213*[#  23]+0.213*[#  31]+0.155*[#  12]+0.155*[#  13]+0.118*[#  10]
          +0.118*[#  11]+0.008*[#  21]+0.008*[#  29]+0.003*[#   9]
    |psi|^2 = 0.995
==== e(  21) =    -5.27243 eV ==== 
     psi = 0.165*[#  24]+0.165*[#  25]+0.165*[#  32]+0.165*[#  33]+0.075*[#  23]
          +0.075*[#  31]+0.061*[#  12]+0.061*[#  13]+0.021*[#  10]+0.021*[#  11]
          +0.003*[#  21]+0.003*[#  29]
    |psi|^2 = 0.982
==== e(  22) =    -5.14474 eV ==== 
     psi = 0.239*[#  27]+0.239*[#  28]+0.239*[#  35]+0.239*[#  36]+0.008*[#  15]
          +0.008*[#  16]+0.001*[#   6]
    |psi|^2 = 0.974
==== e(  23) =    -4.44622 eV ==== 
     psi = 0.288*[#  26]+0.288*[#  34]+0.079*[#  15]+0.079*[#  16]+0.065*[#  17]
          +0.065*[#  18]+0.030*[#  27]+0.030*[#  28]+0.030*[#  35]+0.030*[#  36]
          +0.006*[#  14]+0.003*[#  22]+0.003*[#  30]
    |psi|^2 = 0.995
==== e(  24) =    -4.35006 eV ==== 
     psi = 0.276*[#  26]+0.276*[#  34]+0.082*[#  15]+0.082*[#  16]+0.080*[#  17]
          +0.080*[#  18]+0.028*[#  27]+0.028*[#  28]+0.028*[#  35]+0.028*[#  36]
          +0.004*[#  22]+0.004*[#  30]
    |psi|^2 = 0.996
==== e(  25) =    -4.09132 eV ==== 
     psi = 0.969*[#   9]+0.010*[#  19]+0.003*[#  12]+0.003*[#  13]+0.002*[#  24]
          +0.002*[#  25]+0.002*[#  32]+0.002*[#  33]
    |psi|^2 = 0.993
==== e(  26) =    -3.82628 eV ==== 
     psi = 0.308*[#  12]+0.308*[#  13]+0.129*[#  10]+0.129*[#  11]+0.041*[#  23]
          +0.041*[#  31]+0.009*[#  24]+0.009*[#  25]+0.009*[#  32]+0.009*[#  33]
          +0.002*[#   9]
    |psi|^2 = 0.995
==== e(  27) =    -3.76877 eV ==== 
     psi = 0.279*[#  12]+0.279*[#  13]+0.150*[#  10]+0.150*[#  11]+0.030*[#  23]
          +0.030*[#  31]+0.019*[#  24]+0.019*[#  25]+0.019*[#  32]+0.019*[#  33]
          
    |psi|^2 = 0.995
==== e(  28) =    -3.31483 eV ==== 
     psi = 0.969*[#  14]+0.010*[#  20]+0.002*[#  26]+0.002*[#  34]+0.001*[#  15]
          +0.001*[#  16]+0.001*[#  17]+0.001*[#  18]
    |psi|^2 = 0.988
==== e(  29) =    -3.06770 eV ==== 
     psi = 0.339*[#  17]+0.339*[#  18]+0.119*[#  15]+0.119*[#  16]+0.022*[#  26]
          +0.022*[#  34]+0.008*[#  27]+0.008*[#  28]+0.008*[#  35]+0.008*[#  36]
          
    |psi|^2 = 0.993
==== e(  30) =    -3.02128 eV ==== 
     psi = 0.306*[#  17]+0.306*[#  18]+0.139*[#  15]+0.139*[#  16]+0.026*[#  26]
          +0.026*[#  34]+0.012*[#  27]+0.012*[#  28]+0.012*[#  35]+0.012*[#  36]
          
    |psi|^2 = 0.992
==== e(  31) =    -2.96556 eV ==== 
     psi = 0.183*[#  23]+0.183*[#  31]+0.133*[#  10]+0.133*[#  11]+0.073*[#  24]
          +0.073*[#  25]+0.073*[#  32]+0.073*[#  33]+0.028*[#  12]+0.028*[#  13]
          +0.004*[#   9]+0.002*[#  21]+0.002*[#  29]
    |psi|^2 = 0.989
==== e(  32) =    -2.79667 eV ==== 
     psi = 0.230*[#  23]+0.230*[#  31]+0.106*[#  10]+0.106*[#  11]+0.057*[#  24]
          +0.057*[#  25]+0.057*[#  32]+0.057*[#  33]+0.042*[#  12]+0.042*[#  13]
          +0.002*[#  21]+0.002*[#  29]
    |psi|^2 = 0.989
==== e(  33) =    -1.56294 eV ==== 
     psi = 0.248*[#  15]+0.248*[#  16]+0.080*[#  17]+0.080*[#  18]+0.075*[#  26]
          +0.075*[#  34]+0.041*[#  27]+0.041*[#  28]+0.041*[#  35]+0.041*[#  36]
          +0.004*[#  22]+0.004*[#  30]+0.001*[#  14]
    |psi|^2 = 0.980
==== e(  34) =    -1.42784 eV ==== 
     psi = 0.227*[#  15]+0.227*[#  16]+0.101*[#  26]+0.101*[#  34]+0.090*[#  17]
          +0.090*[#  18]+0.034*[#  27]+0.034*[#  28]+0.034*[#  35]+0.034*[#  36]
          +0.005*[#  22]+0.005*[#  30]
    |psi|^2 = 0.982
==== e(  35) =     1.88896 eV ==== 
     psi = 0.534*[#  19]+0.065*[#  24]+0.065*[#  25]+0.065*[#  32]+0.065*[#  33]
          +0.005*[#   9]+0.003*[#   1]+0.001*[#  23]+0.001*[#  31]
    |psi|^2 = 0.802
==== e(  36) =     2.12998 eV ==== 
     psi = 0.517*[#  20]+0.066*[#  27]+0.066*[#  28]+0.066*[#  35]+0.066*[#  36]
          +0.008*[#  14]+0.003*[#   2]+0.001*[#  26]+0.001*[#  34]
    |psi|^2 = 0.796
==== e(  37) =     3.95573 eV ==== 
     psi = 0.006*[#  23]+0.006*[#  31]+0.001*[#  10]+0.001*[#  11]
    |psi|^2 = 0.019
==== e(  38) =     4.12406 eV ==== 
     psi = 0.007*[#  26]+0.007*[#  34]+0.003*[#  15]+0.003*[#  16]
    |psi|^2 = 0.025
==== e(  39) =     4.31720 eV ==== 
     psi = 0.007*[#  23]+0.007*[#  31]+0.001*[#  10]+0.001*[#  11]
    |psi|^2 = 0.020
==== e(  40) =     4.48960 eV ==== 
     psi = 0.008*[#  26]+0.008*[#  34]+0.003*[#  15]+0.003*[#  16]
    |psi|^2 = 0.026

Lowdin Charges: 

     Atom #   1: total charge =  17.3551, s =  2.6489, p =  5.9999, d =  8.7063, 
                 spin up      =   9.2841, s =  1.3200, 
                 spin up      =   9.2841, p =  2.9999, 
                 spin up      =   9.2841, d =  4.9641, 
                 spin down    =   8.0711, s =  1.3290, 
                 spin down    =   8.0711, p =  2.9999, 
                 spin down    =   8.0711, d =  3.7422, 
                 polarization =   1.2130, s = -0.0090, p =  0.0000, d =  1.2220, 
     Atom #   2: total charge =   7.2033, s =  1.9405, p =  5.2628, d =  0.0000, 
                 spin up      =   3.8021, s =  0.9743, 
                 spin up      =   3.8021, p =  2.8278, 
                 spin up      =   3.8021, d =  0.0000, 
                 spin down    =   3.4012, s =  0.9661, 
                 spin down    =   3.4012, p =  2.4350, 
                 spin down    =   3.4012, d =  0.0000, 
                 polarization =   0.4010, s =  0.0082, p =  0.3928, d =  0.0000, 
     Atom #   3: total charge =   7.2033, s =  1.9405, p =  5.2628, d =  0.0000, 
                 spin up      =   3.8021, s =  0.9743, 
                 spin up      =   3.8021, p =  2.8278, 
                 spin up      =   3.8021, d =  0.0000, 
                 spin down    =   3.4012, s =  0.9661, 
                 spin down    =   3.4012, p =  2.4350, 
                 spin down    =   3.4012, d =  0.0000, 
                 polarization =   0.4010, s =  0.0082, p =  0.3928, d =  0.0000, 
     Spilling Parameter:   0.0074
 
     PROJWFC      :      2.41s CPU      2.88s WALL

 
   This run was terminated on:  23:23:59  26Jun2023            

=------------------------------------------------------------------------------=
   JOB DONE.
=------------------------------------------------------------------------------=
