
     Program PWSCF v.7.1 starts on 27Jun2023 at 15:34:28 

     This program is part of the open-source Quantum ESPRESSO suite
     for quantum simulation of materials; please cite
         "P. Giannozzi et al., J. Phys.:Condens. Matter 21 395502 (2009);
         "P. Giannozzi et al., J. Phys.:Condens. Matter 29 465901 (2017);
         "P. Giannozzi et al., J. Chem. Phys. 152 154105 (2020);
          URL http://www.quantum-espresso.org", 
     in publications or presentations arising from this work. More details at
     http://www.quantum-espresso.org/quote

     Parallel version (MPI & OpenMP), running on      20 processor cores
     Number of MPI processes:                20
     Threads/MPI process:                     1

     MPI processes distributed on     1 nodes
     226726 MiB available memory on the printing compute node when the environment starts
 
     Reading input from input/scf.in

     Current dimensions of program PWSCF are:
     Max number of different atomic species (ntypx) = 10
     Max number of k-points (npk) =  40000
     Max angular momentum in pseudopotentials (lmaxx) =  4

     Fixed quantization axis for GGA:     0.000000    0.000000    1.000000
     Message from routine setup:
     using ibrav=0 with symmetry is DISCOURAGED, use correct ibrav instead
 
     R & G space division:  proc/nbgrp/npool/nimage =      20
     Subspace diagonalization in iterative solution of the eigenvalue problem:
     a serial algorithm will be used

 
     Parallelization info
     --------------------
     sticks:   dense  smooth     PW     G-vecs:    dense   smooth      PW
     Min          93      89     24                20481    19267    2770
     Max          94      90     25                20502    19300    2795
     Sum        1879    1789    499               409943   385631   55807
 
     Using Slab Decomposition
 


     bravais-lattice index     =            0
     lattice parameter (alat)  =       7.3605  a.u.
     unit-cell volume          =    2170.2486 (a.u.)^3
     number of atoms/cell      =            3
     number of atomic types    =            2
     number of electrons       =        32.00
     number of Kohn-Sham states=           40
     kinetic-energy cutoff     =     120.0000  Ry
     charge density cutoff     =     500.0000  Ry
     scf convergence threshold =      1.0E-06
     mixing beta               =       0.4000
     number of iterations used =            8  plain     mixing
     Exchange-correlation= PBE
                           (   1   4   3   4   0   0   0)
     Noncollinear calculation without spin-orbit


     celldm(1)=   7.360481  celldm(2)=   0.000000  celldm(3)=   0.000000
     celldm(4)=   0.000000  celldm(5)=   0.000000  celldm(6)=   0.000000

     crystal axes: (cart. coord. in units of alat)
               a(1) = (   1.000000   0.000000   0.000000 )  
               a(2) = (  -0.500000   0.866025   0.000000 )  
               a(3) = (   0.000000   0.000000   6.284350 )  

     reciprocal axes: (cart. coord. in units 2 pi/alat)
               b(1) = (  1.000000  0.577350  0.000000 )  
               b(2) = (  0.000000  1.154701  0.000000 )  
               b(3) = (  0.000000  0.000000  0.159125 )  


     PseudoPot. # 1 for Ni read from file:
     ../pseudo/Ni.upf
     MD5 check sum: 14a7e289c5fff9cacaba393040e62f02
     Pseudo is Norm-conserving + core correction, Zval = 18.0
     Generated using ONCVPSP code by D. R. Hamann
     Using radial grid of 1372 points,  6 beta functions with: 
                l(1) =   0
                l(2) =   0
                l(3) =   1
                l(4) =   1
                l(5) =   2
                l(6) =   2

     PseudoPot. # 2 for I  read from file:
     ../pseudo/I.upf
     MD5 check sum: 301f7009ca0a2b18b0adf53dca02d42f
     Pseudo is Norm-conserving + core correction, Zval =  7.0
     Generated using ONCVPSP code by D. R. Hamann
     Using radial grid of 1210 points,  6 beta functions with: 
                l(1) =   0
                l(2) =   0
                l(3) =   1
                l(4) =   1
                l(5) =   2
                l(6) =   2

     atomic species   valence    mass     pseudopotential
        Ni            18.00    58.69340     Ni( 1.00)
        I              7.00   126.90447     I ( 1.00)

     12 Sym. Ops., with inversion, found


                                    s                        frac. trans.

      isym =  1     identity                                     

 Time Reversal            0
 cryst.   s( 1) = (     1          0          0      )
                  (     0          1          0      )
                  (     0          0          1      )

 cart.    s( 1) = (  1.0000000  0.0000000  0.0000000 )
                  (  0.0000000  1.0000000  0.0000000 )
                  (  0.0000000  0.0000000  1.0000000 )


      isym =  2     180 deg rotation - cart. axis [1,0,0]        

 Time Reversal            1
 cryst.   s( 2) = (     1          0          0      )
                  (    -1         -1          0      )
                  (     0          0         -1      )

 cart.    s( 2) = (  1.0000000  0.0000000  0.0000000 )
                  (  0.0000000 -1.0000000  0.0000000 )
                  (  0.0000000  0.0000000 -1.0000000 )


      isym =  3     120 deg rotation - cryst. axis [0,0,1]       

 Time Reversal            0
 cryst.   s( 3) = (     0          1          0      )
                  (    -1         -1          0      )
                  (     0          0          1      )

 cart.    s( 3) = ( -0.5000000 -0.8660254  0.0000000 )
                  (  0.8660254 -0.5000000  0.0000000 )
                  (  0.0000000  0.0000000  1.0000000 )


      isym =  4     120 deg rotation - cryst. axis [0,0,-1]      

 Time Reversal            0
 cryst.   s( 4) = (    -1         -1          0      )
                  (     1          0          0      )
                  (     0          0          1      )

 cart.    s( 4) = ( -0.5000000  0.8660254  0.0000000 )
                  ( -0.8660254 -0.5000000  0.0000000 )
                  (  0.0000000  0.0000000  1.0000000 )


      isym =  5     180 deg rotation - cryst. axis [0,1,0]       

 Time Reversal            1
 cryst.   s( 5) = (    -1         -1          0      )
                  (     0          1          0      )
                  (     0          0         -1      )

 cart.    s( 5) = ( -0.5000000 -0.8660254  0.0000000 )
                  ( -0.8660254  0.5000000  0.0000000 )
                  (  0.0000000  0.0000000 -1.0000000 )


      isym =  6     180 deg rotation - cryst. axis [1,1,0]       

 Time Reversal            1
 cryst.   s( 6) = (     0          1          0      )
                  (     1          0          0      )
                  (     0          0         -1      )

 cart.    s( 6) = ( -0.5000000  0.8660254  0.0000000 )
                  (  0.8660254  0.5000000  0.0000000 )
                  (  0.0000000  0.0000000 -1.0000000 )


      isym =  7     inversion                                    

 Time Reversal            0
 cryst.   s( 7) = (    -1          0          0      )
                  (     0         -1          0      )
                  (     0          0         -1      )

 cart.    s( 7) = ( -1.0000000  0.0000000  0.0000000 )
                  (  0.0000000 -1.0000000  0.0000000 )
                  (  0.0000000  0.0000000 -1.0000000 )


      isym =  8     inv. 180 deg rotation - cart. axis [1,0,0]   

 Time Reversal            1
 cryst.   s( 8) = (    -1          0          0      )
                  (     1          1          0      )
                  (     0          0          1      )

 cart.    s( 8) = ( -1.0000000  0.0000000  0.0000000 )
                  (  0.0000000  1.0000000  0.0000000 )
                  (  0.0000000  0.0000000  1.0000000 )


      isym =  9     inv. 120 deg rotation - cryst. axis [0,0,1]  

 Time Reversal            0
 cryst.   s( 9) = (     0         -1          0      )
                  (     1          1          0      )
                  (     0          0         -1      )

 cart.    s( 9) = (  0.5000000  0.8660254  0.0000000 )
                  ( -0.8660254  0.5000000  0.0000000 )
                  (  0.0000000  0.0000000 -1.0000000 )


      isym = 10     inv. 120 deg rotation - cryst. axis [0,0,-1] 

 Time Reversal            0
 cryst.   s(10) = (     1          1          0      )
                  (    -1          0          0      )
                  (     0          0         -1      )

 cart.    s(10) = (  0.5000000 -0.8660254  0.0000000 )
                  (  0.8660254  0.5000000  0.0000000 )
                  (  0.0000000  0.0000000 -1.0000000 )


      isym = 11     inv. 180 deg rotation - cryst. axis [0,1,0]  

 Time Reversal            1
 cryst.   s(11) = (     1          1          0      )
                  (     0         -1          0      )
                  (     0          0          1      )

 cart.    s(11) = (  0.5000000  0.8660254  0.0000000 )
                  (  0.8660254 -0.5000000  0.0000000 )
                  (  0.0000000  0.0000000  1.0000000 )


      isym = 12     inv. 180 deg rotation - cryst. axis [1,1,0]  

 Time Reversal            1
 cryst.   s(12) = (     0         -1          0      )
                  (    -1          0          0      )
                  (     0          0          1      )

 cart.    s(12) = (  0.5000000 -0.8660254  0.0000000 )
                  ( -0.8660254 -0.5000000  0.0000000 )
                  (  0.0000000  0.0000000  1.0000000 )


   Cartesian axes

     site n.     atom                  positions (alat units)
         1           Ni  tau(   1) = (   0.0000000   0.0000000   3.1421749  )
         2           I   tau(   2) = (  -0.0000000   0.5773503   3.5289144  )
         3           I   tau(   3) = (   0.5000000   0.2886751   2.7554354  )

   Crystallographic axes

     site n.     atom                  positions (cryst. coord.)
         1           Ni  tau(   1) = (  0.0000000  0.0000000  0.5000000  )
         2           I   tau(   2) = (  0.3333333  0.6666667  0.5615401  )
         3           I   tau(   3) = (  0.6666667  0.3333333  0.4384599  )

     number of k points=    10  Marzari-Vanderbilt smearing, width (Ry)=  0.0015
                       cart. coord. in units 2pi/alat
        k(    1) = (   0.0000000   0.0000000   0.0000000), wk =   0.0156250
        k(    2) = (   0.0000000   0.1443376   0.0000000), wk =   0.0937500
        k(    3) = (   0.0000000   0.2886751   0.0000000), wk =   0.0937500
        k(    4) = (   0.0000000   0.4330127   0.0000000), wk =   0.0937500
        k(    5) = (   0.0000000  -0.5773503   0.0000000), wk =   0.0468750
        k(    6) = (   0.1250000   0.2165064   0.0000000), wk =   0.0937500
        k(    7) = (   0.1250000   0.3608439   0.0000000), wk =   0.1875000
        k(    8) = (   0.1250000   0.5051815   0.0000000), wk =   0.1875000
        k(    9) = (   0.2500000   0.4330127   0.0000000), wk =   0.0937500
        k(   10) = (   0.2500000   0.5773503   0.0000000), wk =   0.0937500

                       cryst. coord.
        k(    1) = (   0.0000000   0.0000000   0.0000000), wk =   0.0156250
        k(    2) = (   0.0000000   0.1250000   0.0000000), wk =   0.0937500
        k(    3) = (   0.0000000   0.2500000   0.0000000), wk =   0.0937500
        k(    4) = (   0.0000000   0.3750000   0.0000000), wk =   0.0937500
        k(    5) = (   0.0000000  -0.5000000   0.0000000), wk =   0.0468750
        k(    6) = (   0.1250000   0.1250000   0.0000000), wk =   0.0937500
        k(    7) = (   0.1250000   0.2500000   0.0000000), wk =   0.1875000
        k(    8) = (   0.1250000   0.3750000   0.0000000), wk =   0.1875000
        k(    9) = (   0.2500000   0.2500000   0.0000000), wk =   0.0937500
        k(   10) = (   0.2500000   0.3750000   0.0000000), wk =   0.0937500

     Dense  grid:   409943 G-vectors     FFT dimensions: (  54,  54, 360)

     Smooth grid:   385631 G-vectors     FFT dimensions: (  54,  54, 324)

     Dynamical RAM for                 wfc:       2.94 MB

     Dynamical RAM for     wfc (w. buffer):      32.33 MB

     Dynamical RAM for           str. fact:       0.63 MB

     Dynamical RAM for           local pot:       0.00 MB

     Dynamical RAM for          nlocal pot:       1.98 MB

     Dynamical RAM for                qrad:       3.59 MB

     Dynamical RAM for          rho,v,vnew:       8.56 MB

     Dynamical RAM for               rhoin:       2.85 MB

     Dynamical RAM for            rho*nmix:      20.02 MB

     Dynamical RAM for           G-vectors:       1.32 MB

     Dynamical RAM for          h,s,v(r/c):       0.29 MB

     Dynamical RAM for          <psi|beta>:       0.07 MB

     Dynamical RAM for                 psi:       5.88 MB

     Dynamical RAM for                hpsi:       5.88 MB

     Dynamical RAM for      wfcinit/wfcrot:       4.45 MB

     Estimated static dynamical RAM per process >      55.41 MB

     Estimated max dynamical RAM per process >      87.54 MB

     Estimated total dynamical RAM >       1.71 GB
     Generating pointlists ...
     new r_m :   0.2867 (alat units)  2.1099 (a.u.) for type    1
     new r_m :   0.2867 (alat units)  2.1099 (a.u.) for type    2

     Initial potential from superposition of free atoms

     starting charge      31.9996, renormalised to      32.0000

     negative rho (up, down):  3.817E-06 5.460E-03

 ==============================================================================
     atom number    1 relative position :    0.0000   0.0000   3.1422
     charge :    16.779238  (integrated on a sphere of radius 0.287)
     magnetization :          0.000000    0.000000    4.599688
     magnetization/charge:    0.000000    0.000000    0.274130
     polar coord.: r, theta, phi [deg] :     4.599688    0.000000  360.000000

 ==============================================================================

 ==============================================================================
     atom number    2 relative position :   -0.0000   0.5774   3.5289
     charge :     4.047635  (integrated on a sphere of radius 0.287)
     magnetization :          0.000000    0.000000    0.423450
     magnetization/charge:    0.000000    0.000000    0.104617
     polar coord.: r, theta, phi [deg] :     0.423450    0.000000  360.000000

 ==============================================================================

 ==============================================================================
     atom number    3 relative position :    0.5000   0.2887   2.7554
     charge :     4.047635  (integrated on a sphere of radius 0.287)
     magnetization :          0.000000    0.000000    0.423450
     magnetization/charge:    0.000000    0.000000    0.104617
     polar coord.: r, theta, phi [deg] :     0.423450    0.000000  360.000000

 ==============================================================================
     Starting wfcs are   36 randomized atomic wfcs +    4 random wfcs

     total cpu time spent up to now is        2.6 secs

     Self-consistent Calculation

     iteration #  1     ecut=   120.00 Ry     beta= 0.40
     Davidson diagonalization with overlap

---- Real-time Memory Report at c_bands before calling an iterative solver
           154 MiB given to the printing process from OS
             0 MiB allocation reported by mallinfo(arena+hblkhd)
        223874 MiB available memory on the node where the printing process lives
------------------
     ethr =  1.00E-02,  avg # of iterations =  5.5

     negative rho (up, down):  1.058E-06 2.200E-02

     total cpu time spent up to now is        6.0 secs

     total energy              =    -387.12054907 Ry
     estimated scf accuracy    <       0.79683021 Ry

     total magnetization       =    -0.00    -0.00     2.00 Bohr mag/cell
     absolute magnetization    =     2.08 Bohr mag/cell

     iteration #  2     ecut=   120.00 Ry     beta= 0.40
     Davidson diagonalization with overlap

---- Real-time Memory Report at c_bands before calling an iterative solver
           190 MiB given to the printing process from OS
             0 MiB allocation reported by mallinfo(arena+hblkhd)
        222833 MiB available memory on the node where the printing process lives
------------------
     ethr =  2.49E-03,  avg # of iterations =  2.3

     negative rho (up, down):  6.527E-07 4.768E-02

     total cpu time spent up to now is        8.8 secs

     total energy              =    -387.15747734 Ry
     estimated scf accuracy    <       0.81000031 Ry

     total magnetization       =    -0.00    -0.00     2.00 Bohr mag/cell
     absolute magnetization    =     2.19 Bohr mag/cell

     iteration #  3     ecut=   120.00 Ry     beta= 0.40
     Davidson diagonalization with overlap

---- Real-time Memory Report at c_bands before calling an iterative solver
           216 MiB given to the printing process from OS
             0 MiB allocation reported by mallinfo(arena+hblkhd)
        222173 MiB available memory on the node where the printing process lives
------------------
     ethr =  2.49E-03,  avg # of iterations =  2.0

     negative rho (up, down):  1.248E-06 5.347E-02

     total cpu time spent up to now is       11.6 secs

     total energy              =    -387.32651829 Ry
     estimated scf accuracy    <       0.17252650 Ry

     total magnetization       =     0.00     0.00     2.00 Bohr mag/cell
     absolute magnetization    =     2.10 Bohr mag/cell

     iteration #  4     ecut=   120.00 Ry     beta= 0.40
     Davidson diagonalization with overlap

---- Real-time Memory Report at c_bands before calling an iterative solver
           224 MiB given to the printing process from OS
             0 MiB allocation reported by mallinfo(arena+hblkhd)
        222012 MiB available memory on the node where the printing process lives
------------------
     ethr =  5.39E-04,  avg # of iterations =  3.3

     negative rho (up, down):  6.386E-07 4.831E-02

     total cpu time spent up to now is       14.2 secs

     total energy              =    -387.33333355 Ry
     estimated scf accuracy    <       0.00571158 Ry

     total magnetization       =     0.00    -0.00     2.00 Bohr mag/cell
     absolute magnetization    =     2.10 Bohr mag/cell

     iteration #  5     ecut=   120.00 Ry     beta= 0.40
     Davidson diagonalization with overlap

---- Real-time Memory Report at c_bands before calling an iterative solver
           225 MiB given to the printing process from OS
             0 MiB allocation reported by mallinfo(arena+hblkhd)
        221929 MiB available memory on the node where the printing process lives
------------------
     c_bands:  1 eigenvalues not converged
     ethr =  1.78E-05,  avg # of iterations = 11.1

     negative rho (up, down):  4.620E-07 3.046E-02

     total cpu time spent up to now is       18.1 secs

     total energy              =    -387.33435477 Ry
     estimated scf accuracy    <       0.00051605 Ry

     total magnetization       =     0.00     0.00     2.00 Bohr mag/cell
     absolute magnetization    =     2.09 Bohr mag/cell

     iteration #  6     ecut=   120.00 Ry     beta= 0.40
     Davidson diagonalization with overlap

---- Real-time Memory Report at c_bands before calling an iterative solver
           227 MiB given to the printing process from OS
             0 MiB allocation reported by mallinfo(arena+hblkhd)
        224442 MiB available memory on the node where the printing process lives
------------------
     ethr =  1.61E-06,  avg # of iterations =  7.0

     negative rho (up, down):  2.537E-07 1.565E-02

     total cpu time spent up to now is       21.2 secs

     total energy              =    -387.33444710 Ry
     estimated scf accuracy    <       0.00014492 Ry

     total magnetization       =     0.00    -0.00     2.00 Bohr mag/cell
     absolute magnetization    =     2.09 Bohr mag/cell

     iteration #  7     ecut=   120.00 Ry     beta= 0.40
     Davidson diagonalization with overlap

---- Real-time Memory Report at c_bands before calling an iterative solver
           229 MiB given to the printing process from OS
             0 MiB allocation reported by mallinfo(arena+hblkhd)
        222718 MiB available memory on the node where the printing process lives
------------------
     ethr =  4.53E-07,  avg # of iterations =  2.0

     negative rho (up, down):  1.829E-07 1.162E-04

     total cpu time spent up to now is       24.2 secs

     total energy              =    -387.33448640 Ry
     estimated scf accuracy    <       0.00016507 Ry

     total magnetization       =     0.00    -0.00     2.00 Bohr mag/cell
     absolute magnetization    =     2.08 Bohr mag/cell

     iteration #  8     ecut=   120.00 Ry     beta= 0.40
     Davidson diagonalization with overlap

---- Real-time Memory Report at c_bands before calling an iterative solver
           232 MiB given to the printing process from OS
             0 MiB allocation reported by mallinfo(arena+hblkhd)
        222606 MiB available memory on the node where the printing process lives
------------------
     ethr =  4.53E-07,  avg # of iterations =  2.0

     negative rho (up, down):  1.084E-07 1.581E-04

     total cpu time spent up to now is       26.9 secs

     total energy              =    -387.33450040 Ry
     estimated scf accuracy    <       0.00000467 Ry

     total magnetization       =     0.00     0.00     2.00 Bohr mag/cell
     absolute magnetization    =     2.08 Bohr mag/cell

     iteration #  9     ecut=   120.00 Ry     beta= 0.40
     Davidson diagonalization with overlap

---- Real-time Memory Report at c_bands before calling an iterative solver
           235 MiB given to the printing process from OS
             0 MiB allocation reported by mallinfo(arena+hblkhd)
        222552 MiB available memory on the node where the printing process lives
------------------
     ethr =  1.46E-08,  avg # of iterations =  3.2

     negative rho (up, down):  4.853E-08 1.391E-04

     total cpu time spent up to now is       30.2 secs

     total energy              =    -387.33450139 Ry
     estimated scf accuracy    <       0.00000207 Ry

     total magnetization       =    -0.00    -0.00     2.00 Bohr mag/cell
     absolute magnetization    =     2.08 Bohr mag/cell

     iteration # 10     ecut=   120.00 Ry     beta= 0.40
     Davidson diagonalization with overlap

---- Real-time Memory Report at c_bands before calling an iterative solver
           237 MiB given to the printing process from OS
             0 MiB allocation reported by mallinfo(arena+hblkhd)
        222513 MiB available memory on the node where the printing process lives
------------------
     ethr =  6.48E-09,  avg # of iterations =  2.0

 ==============================================================================
     atom number    1 relative position :    0.0000   0.0000   3.1422
     charge :    16.882577  (integrated on a sphere of radius 0.287)
     magnetization :          0.000000    0.000000    1.260268
     magnetization/charge:    0.000000    0.000000    0.074649
     polar coord.: r, theta, phi [deg] :     1.260268    0.000000  360.000000

 ==============================================================================

 ==============================================================================
     atom number    2 relative position :   -0.0000   0.5774   3.5289
     charge :     4.050246  (integrated on a sphere of radius 0.287)
     magnetization :         -0.000000    0.000000    0.226502
     magnetization/charge:   -0.000000    0.000000    0.055923
     polar coord.: r, theta, phi [deg] :     0.226502    0.000000  360.000000

 ==============================================================================

 ==============================================================================
     atom number    3 relative position :    0.5000   0.2887   2.7554
     charge :     4.050246  (integrated on a sphere of radius 0.287)
     magnetization :         -0.000000    0.000000    0.226502
     magnetization/charge:   -0.000000    0.000000    0.055923
     polar coord.: r, theta, phi [deg] :     0.226502    0.000000  360.000000

 ==============================================================================

     total cpu time spent up to now is       33.1 secs

     End of self-consistent calculation

          k = 0.0000 0.0000 0.0000 ( 48107 PWs)   bands (ev):

  -105.9898-104.6185 -66.4637 -66.4098 -66.4098 -64.9535 -64.9422 -64.9422
   -15.7931 -15.5680 -14.8518 -14.5952  -6.8594  -6.6404  -5.8099  -5.8099
    -4.5651  -4.5651  -4.2764  -4.2764  -3.9113  -3.7902  -3.5472  -3.3358
    -3.3358  -3.1763  -2.8793  -2.8793  -2.6267  -2.6267  -1.9811  -1.9811
    -0.8847  -0.8847   1.7682   1.9004   2.5083   2.6128   2.6835   2.7570

     occupation numbers 
     1.0000   1.0000   1.0000   1.0000   1.0000   1.0000   1.0000   1.0000
     1.0000   1.0000   1.0000   1.0000   1.0000   1.0000   1.0000   1.0000
     1.0000   1.0000   1.0000   1.0000   1.0000   1.0000   1.0000   1.0000
     1.0000   1.0000   1.0000   1.0000   1.0000   1.0000   1.0000   1.0000
     0.0000   0.0000   0.0000   0.0000   0.0000   0.0000   0.0000   0.0000

          k = 0.0000 0.1443 0.0000 ( 48142 PWs)   bands (ev):

  -105.9897-104.6185 -66.4637 -66.4098 -66.4098 -64.9535 -64.9423 -64.9423
   -15.6738 -15.4469 -14.7874 -14.5287  -6.7401  -6.5244  -5.9554  -5.7975
    -4.9583  -4.5531  -4.5406  -4.3426  -4.0621  -3.8622  -3.6166  -3.5219
    -3.3491  -3.3209  -3.2891  -3.0259  -2.7904  -2.6659  -2.5748  -2.0684
    -1.3537  -0.9597   2.2380   2.3665   2.8207   2.9048   2.9588   3.1041

     occupation numbers 
     1.0000   1.0000   1.0000   1.0000   1.0000   1.0000   1.0000   1.0000
     1.0000   1.0000   1.0000   1.0000   1.0000   1.0000   1.0000   1.0000
     1.0000   1.0000   1.0000   1.0000   1.0000   1.0000   1.0000   1.0000
     1.0000   1.0000   1.0000   1.0000   1.0000   1.0000   1.0000   1.0000
     0.0000   0.0000   0.0000   0.0000   0.0000   0.0000   0.0000   0.0000

          k = 0.0000 0.2887 0.0000 ( 48148 PWs)   bands (ev):

  -105.9897-104.6185 -66.4637 -66.4100 -66.4098 -64.9535 -64.9425 -64.9423
   -15.3505 -15.1176 -14.6328 -14.3688  -6.5527  -6.3537  -6.2730  -5.7731
    -5.7422  -5.5130  -4.9203  -4.5258  -4.4682  -4.2035  -3.9007  -3.8760
    -3.5952  -3.5053  -3.4157  -3.3062  -2.9550  -2.9021  -2.8531  -2.1871
    -1.6063  -1.0487   1.9588   2.1582   2.9332   3.0523   3.2259   3.3373

     occupation numbers 
     1.0000   1.0000   1.0000   1.0000   1.0000   1.0000   1.0000   1.0000
     1.0000   1.0000   1.0000   1.0000   1.0000   1.0000   1.0000   1.0000
     1.0000   1.0000   1.0000   1.0000   1.0000   1.0000   1.0000   1.0000
     1.0000   1.0000   1.0000   1.0000   1.0000   1.0000   1.0000   1.0000
     0.0000   0.0000   0.0000   0.0000   0.0000   0.0000   0.0000   0.0000

          k = 0.0000 0.4330 0.0000 ( 48212 PWs)   bands (ev):

  -105.9897-104.6184 -66.4637 -66.4102 -66.4099 -64.9534 -64.9427 -64.9424
   -14.9405 -14.6981 -14.5031 -14.2347  -7.1811  -6.9861  -6.5044  -6.2076
    -5.7617  -5.6258  -5.0084  -4.6165  -4.5163  -4.5019  -4.2493  -4.1629
    -4.0241  -3.8439  -3.7812  -3.3311  -3.0759  -3.0422  -2.6477  -2.2469
    -1.3507  -1.0769   1.1413   1.3700   3.0560   3.2105   3.5022   3.6702

     occupation numbers 
     1.0000   1.0000   1.0000   1.0000   1.0000   1.0000   1.0000   1.0000
     1.0000   1.0000   1.0000   1.0000   1.0000   1.0000   1.0000   1.0000
     1.0000   1.0000   1.0000   1.0000   1.0000   1.0000   1.0000   1.0000
     1.0000   1.0000   1.0000   1.0000   1.0000   1.0000   1.0000   1.0000
     0.0000   0.0000   0.0000   0.0000   0.0000   0.0000   0.0000   0.0000

          k = 0.0000-0.5774 0.0000 ( 48254 PWs)   bands (ev):

  -105.9897-104.6184 -66.4636 -66.4102 -66.4099 -64.9534 -64.9428 -64.9424
   -14.6935 -14.5031 -14.4451 -14.2338  -7.5860  -7.3918  -6.6057  -6.4094
    -5.7626  -5.5734  -4.6534  -4.6020  -4.4935  -4.4819  -4.4324  -4.3194
    -4.2696  -4.0590  -3.9339  -3.3399  -3.1673  -3.1549  -2.5307  -2.2638
    -1.2196  -1.0809   0.8551   1.1099   2.9619   3.6817   3.8318   3.8982

     occupation numbers 
     1.0000   1.0000   1.0000   1.0000   1.0000   1.0000   1.0000   1.0000
     1.0000   1.0000   1.0000   1.0000   1.0000   1.0000   1.0000   1.0000
     1.0000   1.0000   1.0000   1.0000   1.0000   1.0000   1.0000   1.0000
     1.0000   1.0000   1.0000   1.0000   1.0000   1.0000   1.0000   1.0000
     0.0000   0.0000   0.0000   0.0000   0.0000   0.0000   0.0000   0.0000

          k = 0.1250 0.2165 0.0000 ( 48125 PWs)   bands (ev):

  -105.9897-104.6185 -66.4637 -66.4099 -66.4098 -64.9535 -64.9425 -64.9423
   -15.4520 -15.2211 -14.6771 -14.4147  -6.5625  -6.3571  -6.1560  -5.8143
    -5.4469  -5.0485  -4.7864  -4.7307  -4.5651  -4.0957  -3.8840  -3.6515
    -3.5548  -3.3856  -3.3401  -3.3132  -2.8747  -2.7920  -2.6538  -2.5114
    -1.4394  -1.2913   2.6617   2.8805   2.9092   3.0178   3.0420   3.1464

     occupation numbers 
     1.0000   1.0000   1.0000   1.0000   1.0000   1.0000   1.0000   1.0000
     1.0000   1.0000   1.0000   1.0000   1.0000   1.0000   1.0000   1.0000
     1.0000   1.0000   1.0000   1.0000   1.0000   1.0000   1.0000   1.0000
     1.0000   1.0000   1.0000   1.0000   1.0000   1.0000   1.0000   1.0000
     0.0000   0.0000   0.0000   0.0000   0.0000   0.0000   0.0000   0.0000

          k = 0.1250 0.3608 0.0000 ( 48162 PWs)   bands (ev):

  -105.9897-104.6184 -66.4637 -66.4101 -66.4099 -64.9535 -64.9426 -64.9424
   -15.0813 -14.8423 -14.5296 -14.2622  -6.7514  -6.5486  -6.4005  -6.0243
    -5.8174  -5.6081  -5.1834  -5.0824  -4.7201  -4.3042  -4.3018  -4.0748
    -3.7996  -3.7562  -3.5392  -3.2958  -3.0237  -2.8921  -2.8367  -2.5046
    -1.5323  -1.2495   1.9707   2.2021   3.2733   3.4216   3.6689   3.7771

     occupation numbers 
     1.0000   1.0000   1.0000   1.0000   1.0000   1.0000   1.0000   1.0000
     1.0000   1.0000   1.0000   1.0000   1.0000   1.0000   1.0000   1.0000
     1.0000   1.0000   1.0000   1.0000   1.0000   1.0000   1.0000   1.0000
     1.0000   1.0000   1.0000   1.0000   1.0000   1.0000   1.0000   1.0000
     0.0000   0.0000   0.0000   0.0000   0.0000   0.0000   0.0000   0.0000

          k = 0.1250 0.5052 0.0000 ( 48212 PWs)   bands (ev):

  -105.9897-104.6184 -66.4636 -66.4102 -66.4099 -64.9534 -64.9427 -64.9424
   -14.7275 -14.4785 -14.4726 -14.2040  -7.3739  -7.1803  -6.5386  -6.2942
    -5.7746  -5.5444  -5.2111  -5.0567  -4.7228  -4.6279  -4.6064  -4.2044
    -4.0694  -4.0119  -3.7754  -3.2403  -3.1621  -3.0401  -2.6992  -2.5151
    -1.4153  -1.2151   1.4034   1.6501   3.5773   3.7276   3.9834   4.1593

     occupation numbers 
     1.0000   1.0000   1.0000   1.0000   1.0000   1.0000   1.0000   1.0000
     1.0000   1.0000   1.0000   1.0000   1.0000   1.0000   1.0000   1.0000
     1.0000   1.0000   1.0000   1.0000   1.0000   1.0000   1.0000   1.0000
     1.0000   1.0000   1.0000   1.0000   1.0000   1.0000   1.0000   1.0000
     0.0000   0.0000   0.0000   0.0000   0.0000   0.0000   0.0000   0.0000

          k = 0.2500 0.4330 0.0000 ( 48187 PWs)   bands (ev):

  -105.9897-104.6184 -66.4636 -66.4102 -66.4100 -64.9534 -64.9427 -64.9425
   -14.7547 -14.5058 -14.4490 -14.1804  -7.0404  -6.8395  -6.4629  -6.2209
    -5.9946  -5.6181  -5.5538  -5.4901  -4.7918  -4.7679  -4.7197  -4.1053
    -4.0435  -3.9446  -3.6378  -3.2119  -3.1624  -3.0793  -2.9377  -2.5585
    -1.6722  -1.2356   2.0281   2.2772   3.3684   3.5110   4.6350   4.7480

     occupation numbers 
     1.0000   1.0000   1.0000   1.0000   1.0000   1.0000   1.0000   1.0000
     1.0000   1.0000   1.0000   1.0000   1.0000   1.0000   1.0000   1.0000
     1.0000   1.0000   1.0000   1.0000   1.0000   1.0000   1.0000   1.0000
     1.0000   1.0000   1.0000   1.0000   1.0000   1.0000   1.0000   1.0000
     0.0000   0.0000   0.0000   0.0000   0.0000   0.0000   0.0000   0.0000

          k = 0.2500 0.5774 0.0000 ( 48231 PWs)   bands (ev):

  -105.9897-104.6184 -66.4636 -66.4102 -66.4100 -64.9534 -64.9427 -64.9425
   -14.5588 -14.4635 -14.3019 -14.1976  -7.1789  -7.0005  -6.4695  -6.1714
    -6.1593  -5.9043  -5.6249  -5.4843  -5.0964  -5.0417  -4.4399  -4.3625
    -4.0848  -3.8414  -3.7641  -3.2908  -3.0721  -3.0177  -2.9700  -2.7197
    -1.5674  -1.3670   1.8487   2.0932   4.0026   4.1689   4.1726   4.3285

     occupation numbers 
     1.0000   1.0000   1.0000   1.0000   1.0000   1.0000   1.0000   1.0000
     1.0000   1.0000   1.0000   1.0000   1.0000   1.0000   1.0000   1.0000
     1.0000   1.0000   1.0000   1.0000   1.0000   1.0000   1.0000   1.0000
     1.0000   1.0000   1.0000   1.0000   1.0000   1.0000   1.0000   1.0000
     0.0000   0.0000   0.0000   0.0000   0.0000   0.0000   0.0000   0.0000

     the Fermi energy is    -1.7810 ev

!    total energy              =    -387.33450176 Ry
     estimated scf accuracy    <       0.00000033 Ry
     smearing contrib. (-TS)   =      -0.00000000 Ry
     internal energy E=F+TS    =    -387.33450176 Ry

     The total energy is F=E-TS. E is the sum of the following terms:
     one-electron contribution =   -1776.11753681 Ry
     hartree contribution      =     888.97628250 Ry
     xc contribution           =     -58.82687539 Ry
     ewald contribution        =     558.63362793 Ry

     total magnetization       =     0.00     0.00     2.00 Bohr mag/cell
     absolute magnetization    =     2.08 Bohr mag/cell

     convergence has been achieved in  10 iterations

     Writing all to output data dir ./tmp/nnso.save/
 
     init_run     :      2.40s CPU      2.45s WALL (       1 calls)
     electrons    :     30.38s CPU     30.53s WALL (       1 calls)

     Called by init_run:
     wfcinit      :      0.86s CPU      0.88s WALL (       1 calls)
     wfcinit:atom :      0.02s CPU      0.02s WALL (      10 calls)
     wfcinit:wfcr :      0.81s CPU      0.82s WALL (      10 calls)
     potinit      :      0.43s CPU      0.44s WALL (       1 calls)
     hinit0       :      1.02s CPU      1.03s WALL (       1 calls)

     Called by electrons:
     c_bands      :     24.28s CPU     24.35s WALL (      10 calls)
     sum_band     :      5.07s CPU      5.10s WALL (      10 calls)
     v_of_rho     :      0.68s CPU      0.70s WALL (      11 calls)
     v_h          :      0.02s CPU      0.02s WALL (      11 calls)
     v_xc         :      0.67s CPU      0.68s WALL (      11 calls)
     mix_rho      :      0.27s CPU      0.28s WALL (      10 calls)

     Called by c_bands:
     init_us_2    :      0.19s CPU      0.19s WALL (     210 calls)
     init_us_2:cp :      0.19s CPU      0.19s WALL (     210 calls)
     cegterg      :     22.65s CPU     22.71s WALL (     100 calls)

     Called by sum_band:
     sum_band:wei :      0.00s CPU      0.00s WALL (      10 calls)
     sum_band:loo :      4.95s CPU      4.98s WALL (      10 calls)
     sum_band:buf :      0.11s CPU      0.11s WALL (     100 calls)
     sum_band:ini :      0.09s CPU      0.09s WALL (     100 calls)

     Called by *egterg:
     cdiaghg      :      0.82s CPU      0.83s WALL (     504 calls)
     cegterg:over :      1.30s CPU      1.31s WALL (     404 calls)
     cegterg:upda :      0.90s CPU      0.91s WALL (     404 calls)
     cegterg:last :      1.00s CPU      1.00s WALL (     207 calls)
     h_psi        :     18.47s CPU     18.54s WALL (     514 calls)
     g_psi        :      0.12s CPU      0.12s WALL (     404 calls)

     Called by h_psi:
     h_psi:calbec :      0.67s CPU      0.68s WALL (     514 calls)
     vloc_psi     :     16.88s CPU     16.93s WALL (     514 calls)
     add_vuspsi   :      0.68s CPU      0.68s WALL (     514 calls)

     General routines
     calbec       :      0.67s CPU      0.68s WALL (     514 calls)
     fft          :      0.56s CPU      0.56s WALL (     349 calls)
     ffts         :      0.05s CPU      0.05s WALL (      84 calls)
     fftw         :     15.96s CPU     16.01s WALL (   48692 calls)
     interpolate  :      0.08s CPU      0.08s WALL (      44 calls)
 
     Parallel routines
 
     PWSCF        :     33.27s CPU     33.83s WALL

 
   This run was terminated on:  15:35: 2  27Jun2023            

=------------------------------------------------------------------------------=
   JOB DONE.
=------------------------------------------------------------------------------=
