
     Program PROJWFC v.6.8 starts on  8Mar2023 at 17: 4:19 

     This program is part of the open-source Quantum ESPRESSO suite
     for quantum simulation of materials; please cite
         "P. Giannozzi et al., J. Phys.:Condens. Matter 21 395502 (2009);
         "P. Giannozzi et al., J. Phys.:Condens. Matter 29 465901 (2017);
         "P. Giannozzi et al., J. Chem. Phys. 152 154105 (2020);
          URL http://www.quantum-espresso.org", 
     in publications or presentations arising from this work. More details at
     http://www.quantum-espresso.org/quote

     Parallel version (MPI & OpenMP), running on      80 processor cores
     Number of MPI processes:                80
     Threads/MPI process:                     1

     MPI processes distributed on     2 nodes
     R & G space division:  proc/nbgrp/npool/nimage =      80
     86119 MiB available memory on the printing compute node when the environment starts
 

     Reading xml data from directory:

     ./tmp/csp.save/

     IMPORTANT: XC functional enforced from input :
     Exchange-correlation= PBE
                           (   1   4   3   4   0   0   0)
     Any further DFT definition will be discarded
     Please, verify this is what you really want

 
     Parallelization info
     --------------------
     sticks:   dense  smooth     PW     G-vecs:    dense   smooth      PW
     Min          23      22      6                 5111     4806     684
     Max          24      23      7                 5135     4845     709
     Sum        1879    1789    499               409943   385631   55807
 
     Using Slab Decomposition
 

     Gaussian broadening (read from input): ngauss,degauss=   0    0.001000


     Calling projwave .... 

     Subspace diagonalization in iterative solution of the eigenvalue problem:
     a serial algorithm will be used

 
  Problem Sizes 
  natomwfc =           18
  nbnd     =           20
  nkstot   =           60
  npwx     =          622
  nkb      =           54
 

     Atomic states used for projection
     (read from pseudopotential files):

     state #   1: atom   1 (Ni ), wfc  1 (l=0 m= 1)
     state #   2: atom   1 (Ni ), wfc  2 (l=1 m= 1)
     state #   3: atom   1 (Ni ), wfc  2 (l=1 m= 2)
     state #   4: atom   1 (Ni ), wfc  2 (l=1 m= 3)
     state #   5: atom   1 (Ni ), wfc  3 (l=2 m= 1)
     state #   6: atom   1 (Ni ), wfc  3 (l=2 m= 2)
     state #   7: atom   1 (Ni ), wfc  3 (l=2 m= 3)
     state #   8: atom   1 (Ni ), wfc  3 (l=2 m= 4)
     state #   9: atom   1 (Ni ), wfc  3 (l=2 m= 5)
     state #  10: atom   1 (Ni ), wfc  4 (l=0 m= 1)
     state #  11: atom   2 (I  ), wfc  1 (l=0 m= 1)
     state #  12: atom   2 (I  ), wfc  2 (l=1 m= 1)
     state #  13: atom   2 (I  ), wfc  2 (l=1 m= 2)
     state #  14: atom   2 (I  ), wfc  2 (l=1 m= 3)
     state #  15: atom   3 (I  ), wfc  1 (l=0 m= 1)
     state #  16: atom   3 (I  ), wfc  2 (l=1 m= 1)
     state #  17: atom   3 (I  ), wfc  2 (l=1 m= 2)
     state #  18: atom   3 (I  ), wfc  2 (l=1 m= 3)

 k =   0.0000000000  0.0000000000  0.0000000000
==== e(   1) =  -106.00251 eV ==== 
     psi = 0.996*[#   1]+0.002*[#  12]+0.002*[#  16]
    |psi|^2 = 1.000
==== e(   2) =   -66.47612 eV ==== 
     psi = 0.999*[#   2]
    |psi|^2 = 1.000
==== e(   3) =   -66.42269 eV ==== 
     psi = 0.500*[#   3]+0.500*[#   4]
    |psi|^2 = 1.000
==== e(   4) =   -66.42269 eV ==== 
     psi = 0.500*[#   3]+0.500*[#   4]
    |psi|^2 = 1.000
==== e(   5) =   -15.79610 eV ==== 
     psi = 0.364*[#  11]+0.364*[#  15]+0.261*[#  10]+0.005*[#  12]+0.005*[#  16]
          +0.001*[#   1]
    |psi|^2 = 1.000
==== e(   6) =   -14.85380 eV ==== 
     psi = 0.495*[#  11]+0.495*[#  15]+0.003*[#  12]+0.003*[#  16]
    |psi|^2 = 0.997
==== e(   7) =    -6.86313 eV ==== 
     psi = 0.374*[#  12]+0.374*[#  16]+0.100*[#   5]+0.072*[#  10]+0.035*[#  11]
          +0.035*[#  15]+0.002*[#   1]
    |psi|^2 = 0.994
==== e(   8) =    -5.82005 eV ==== 
     psi = 0.193*[#   8]+0.193*[#   9]+0.186*[#   6]+0.186*[#   7]+0.059*[#  13]
          +0.059*[#  14]+0.059*[#  17]+0.059*[#  18]
    |psi|^2 = 0.995
==== e(   9) =    -5.82005 eV ==== 
     psi = 0.193*[#   8]+0.193*[#   9]+0.186*[#   6]+0.186*[#   7]+0.059*[#  13]
          +0.059*[#  14]+0.059*[#  17]+0.059*[#  18]
    |psi|^2 = 0.995
==== e(  10) =    -4.28799 eV ==== 
     psi = 0.285*[#   6]+0.285*[#   7]+0.201*[#   8]+0.201*[#   9]+0.004*[#  13]
          +0.004*[#  14]+0.004*[#  17]+0.004*[#  18]
    |psi|^2 = 0.990
==== e(  11) =    -4.28799 eV ==== 
     psi = 0.285*[#   6]+0.285*[#   7]+0.201*[#   8]+0.201*[#   9]+0.004*[#  13]
          +0.004*[#  14]+0.004*[#  17]+0.004*[#  18]
    |psi|^2 = 0.990
==== e(  12) =    -3.92193 eV ==== 
     psi = 0.885*[#   5]+0.035*[#  12]+0.035*[#  16]+0.025*[#  10]+0.006*[#  11]
          +0.006*[#  15]
    |psi|^2 = 0.993
==== e(  13) =    -3.79191 eV ==== 
     psi = 0.495*[#  12]+0.495*[#  16]+0.003*[#  11]+0.003*[#  15]
    |psi|^2 = 0.995
==== e(  14) =    -2.88194 eV ==== 
     psi = 0.246*[#  13]+0.246*[#  14]+0.246*[#  17]+0.246*[#  18]
    |psi|^2 = 0.984
==== e(  15) =    -2.88194 eV ==== 
     psi = 0.246*[#  13]+0.246*[#  14]+0.246*[#  17]+0.246*[#  18]
    |psi|^2 = 0.984
==== e(  16) =    -1.98641 eV ==== 
     psi = 0.185*[#  13]+0.185*[#  14]+0.185*[#  17]+0.185*[#  18]+0.103*[#   8]
          +0.103*[#   9]+0.026*[#   6]+0.026*[#   7]
    |psi|^2 = 0.999
==== e(  17) =    -1.98641 eV ==== 
     psi = 0.185*[#  13]+0.185*[#  14]+0.185*[#  17]+0.185*[#  18]+0.103*[#   8]
          +0.103*[#   9]+0.026*[#   6]+0.026*[#   7]
    |psi|^2 = 0.999
==== e(  18) =     1.76612 eV ==== 
     psi = 0.402*[#  10]+0.058*[#  11]+0.058*[#  15]+0.053*[#  12]+0.053*[#  16]
          +0.002*[#   5]
    |psi|^2 = 0.627
==== e(  19) =     2.50389 eV ==== 
     psi = 0.001*[#  11]+0.001*[#  15]
    |psi|^2 = 0.004
==== e(  20) =     2.68448 eV ==== 
 
    |psi|^2 = 0.000

 k =   0.0000000000  0.0721687836  0.0000000000
==== e(   1) =  -106.00251 eV ==== 
     psi = 0.996*[#   1]+0.002*[#  12]+0.002*[#  16]
    |psi|^2 = 1.000
==== e(   2) =   -66.47612 eV ==== 
     psi = 0.999*[#   2]
    |psi|^2 = 1.000
==== e(   3) =   -66.42270 eV ==== 
     psi = 0.500*[#   3]+0.500*[#   4]
    |psi|^2 = 1.000
==== e(   4) =   -66.42269 eV ==== 
     psi = 0.500*[#   3]+0.500*[#   4]
    |psi|^2 = 1.000
==== e(   5) =   -15.76575 eV ==== 
     psi = 0.367*[#  11]+0.367*[#  15]+0.254*[#  10]+0.005*[#  12]+0.005*[#  16]
          +0.001*[#   1]
    |psi|^2 = 1.000
==== e(   6) =   -14.83713 eV ==== 
     psi = 0.494*[#  11]+0.494*[#  15]+0.003*[#  12]+0.003*[#  16]
    |psi|^2 = 0.997
==== e(   7) =    -6.83192 eV ==== 
     psi = 0.373*[#  12]+0.373*[#  16]+0.099*[#   5]+0.074*[#  10]+0.036*[#  11]
          +0.036*[#  15]+0.002*[#   1]
    |psi|^2 = 0.994
==== e(   8) =    -5.85928 eV ==== 
     psi = 0.189*[#   8]+0.189*[#   9]+0.175*[#   6]+0.175*[#   7]+0.062*[#  13]
          +0.062*[#  14]+0.062*[#  17]+0.062*[#  18]+0.008*[#  12]+0.008*[#  16]
          
    |psi|^2 = 0.995
==== e(   9) =    -5.81671 eV ==== 
     psi = 0.189*[#   6]+0.189*[#   7]+0.189*[#   8]+0.189*[#   9]+0.060*[#  13]
          +0.060*[#  14]+0.060*[#  17]+0.060*[#  18]
    |psi|^2 = 0.995
==== e(  10) =    -4.33477 eV ==== 
     psi = 0.285*[#   6]+0.285*[#   7]+0.177*[#   8]+0.177*[#   9]+0.013*[#  13]
          +0.013*[#  14]+0.013*[#  17]+0.013*[#  18]+0.006*[#   5]+0.003*[#  12]
          +0.003*[#  16]
    |psi|^2 = 0.989
==== e(  11) =    -4.30569 eV ==== 
     psi = 0.275*[#   6]+0.275*[#   7]+0.199*[#   8]+0.199*[#   9]+0.010*[#  13]
          +0.010*[#  14]+0.010*[#  17]+0.010*[#  18]
    |psi|^2 = 0.990
==== e(  12) =    -3.96410 eV ==== 
     psi = 0.838*[#   5]+0.029*[#  10]+0.028*[#  12]+0.028*[#  16]+0.010*[#  13]
          +0.010*[#  14]+0.010*[#  17]+0.010*[#  18]+0.008*[#  11]+0.008*[#  15]
          +0.004*[#   6]+0.004*[#   7]+0.003*[#   8]+0.003*[#   9]
    |psi|^2 = 0.992
==== e(  13) =    -3.74044 eV ==== 
     psi = 0.483*[#  12]+0.483*[#  16]+0.008*[#   8]+0.008*[#   9]+0.002*[#  11]
          +0.002*[#  15]+0.002*[#  13]+0.002*[#  14]+0.002*[#  17]+0.002*[#  18]
          
    |psi|^2 = 0.994
==== e(  14) =    -3.04031 eV ==== 
     psi = 0.218*[#  13]+0.218*[#  14]+0.218*[#  17]+0.218*[#  18]+0.044*[#   5]
          +0.015*[#   8]+0.015*[#   9]+0.011*[#  12]+0.011*[#  16]+0.005*[#  10]
          +0.004*[#   6]+0.004*[#   7]+0.002*[#  11]+0.002*[#  15]
    |psi|^2 = 0.985
==== e(  15) =    -2.91904 eV ==== 
     psi = 0.237*[#  13]+0.237*[#  14]+0.237*[#  17]+0.237*[#  18]+0.014*[#   8]
          +0.014*[#   9]+0.003*[#   6]+0.003*[#   7]
    |psi|^2 = 0.983
==== e(  16) =    -2.16239 eV ==== 
     psi = 0.181*[#  13]+0.181*[#  14]+0.181*[#  17]+0.181*[#  18]+0.104*[#   8]
          +0.104*[#   9]+0.028*[#   6]+0.028*[#   7]+0.002*[#  11]+0.002*[#  15]
          
    |psi|^2 = 0.992
==== e(  17) =    -2.01220 eV ==== 
     psi = 0.188*[#  13]+0.188*[#  14]+0.188*[#  17]+0.188*[#  18]+0.094*[#   8]
          +0.094*[#   9]+0.030*[#   6]+0.030*[#   7]
    |psi|^2 = 0.998
==== e(  18) =     1.91148 eV ==== 
     psi = 0.372*[#  10]+0.050*[#  11]+0.050*[#  15]+0.047*[#  12]+0.047*[#  16]
          +0.004*[#  13]+0.004*[#  14]+0.004*[#  17]+0.004*[#  18]
    |psi|^2 = 0.585
==== e(  19) =     2.70326 eV ==== 
 
    |psi|^2 = 0.006
==== e(  20) =     2.75369 eV ==== 
 
    |psi|^2 = 0.007

 k =   0.0000000000  0.1443375673  0.0000000000
==== e(   1) =  -106.00250 eV ==== 
     psi = 0.995*[#   1]+0.002*[#  12]+0.002*[#  16]
    |psi|^2 = 1.000
==== e(   2) =   -66.47611 eV ==== 
     psi = 0.999*[#   2]
    |psi|^2 = 1.000
==== e(   3) =   -66.42276 eV ==== 
     psi = 0.500*[#   3]+0.500*[#   4]
    |psi|^2 = 1.000
==== e(   4) =   -66.42270 eV ==== 
     psi = 0.500*[#   3]+0.500*[#   4]
    |psi|^2 = 1.000
==== e(   5) =   -15.67675 eV ==== 
     psi = 0.374*[#  11]+0.374*[#  15]+0.234*[#  10]+0.005*[#  12]+0.005*[#  16]
          +0.001*[#  13]+0.001*[#  14]+0.001*[#  17]+0.001*[#  18]
    |psi|^2 = 1.000
==== e(   6) =   -14.78946 eV ==== 
     psi = 0.492*[#  11]+0.492*[#  15]+0.002*[#  12]+0.002*[#  16]+0.001*[#   6]
          +0.001*[#   7]+0.001*[#  13]+0.001*[#  14]+0.001*[#  17]+0.001*[#  18]
          
    |psi|^2 = 0.997
==== e(   7) =    -6.74384 eV ==== 
     psi = 0.369*[#  12]+0.369*[#  16]+0.093*[#   5]+0.081*[#  10]+0.036*[#  11]
          +0.036*[#  15]+0.002*[#   1]+0.001*[#  13]+0.001*[#  14]+0.001*[#  17]
          +0.001*[#  18]
    |psi|^2 = 0.994
==== e(   8) =    -5.96448 eV ==== 
     psi = 0.179*[#   8]+0.179*[#   9]+0.148*[#   6]+0.148*[#   7]+0.071*[#  13]
          +0.071*[#  14]+0.071*[#  17]+0.071*[#  18]+0.027*[#  12]+0.027*[#  16]
          
    |psi|^2 = 0.994
==== e(   9) =    -5.80758 eV ==== 
     psi = 0.199*[#   6]+0.199*[#   7]+0.177*[#   8]+0.177*[#   9]+0.061*[#  13]
          +0.061*[#  14]+0.061*[#  17]+0.061*[#  18]
    |psi|^2 = 0.995
==== e(  10) =    -4.54984 eV ==== 
     psi = 0.228*[#   6]+0.228*[#   7]+0.091*[#   8]+0.091*[#   9]+0.070*[#   5]
          +0.061*[#  13]+0.061*[#  14]+0.061*[#  17]+0.061*[#  18]+0.012*[#  10]
          +0.005*[#  12]+0.005*[#  16]+0.005*[#  11]+0.005*[#  15]
    |psi|^2 = 0.986
==== e(  11) =    -4.35344 eV ==== 
     psi = 0.247*[#   6]+0.247*[#   7]+0.194*[#   8]+0.194*[#   9]+0.027*[#  13]
          +0.027*[#  14]+0.027*[#  17]+0.027*[#  18]
    |psi|^2 = 0.989
==== e(  12) =    -4.07221 eV ==== 
     psi = 0.609*[#   5]+0.064*[#   6]+0.064*[#   7]+0.043*[#   8]+0.043*[#   9]
          +0.033*[#  10]+0.022*[#  13]+0.022*[#  14]+0.022*[#  17]+0.022*[#  18]
          +0.014*[#  12]+0.014*[#  16]+0.009*[#  11]+0.009*[#  15]
    |psi|^2 = 0.990
==== e(  13) =    -3.61881 eV ==== 
     psi = 0.455*[#  12]+0.455*[#  16]+0.019*[#   8]+0.019*[#   9]+0.010*[#  13]
          +0.010*[#  14]+0.010*[#  17]+0.010*[#  18]+0.003*[#   5]+0.001*[#  11]
          +0.001*[#  15]
    |psi|^2 = 0.991
==== e(  14) =    -3.32697 eV ==== 
     psi = 0.209*[#   5]+0.137*[#  13]+0.137*[#  14]+0.137*[#  17]+0.137*[#  18]
          +0.052*[#   8]+0.052*[#   9]+0.039*[#  12]+0.039*[#  16]+0.017*[#   6]
          +0.017*[#   7]+0.006*[#  10]+0.003*[#  11]+0.003*[#  15]
    |psi|^2 = 0.988
==== e(  15) =    -3.02988 eV ==== 
     psi = 0.214*[#  13]+0.214*[#  14]+0.214*[#  17]+0.214*[#  18]+0.054*[#   8]
          +0.054*[#   9]+0.010*[#   6]+0.010*[#   7]
    |psi|^2 = 0.982
==== e(  16) =    -2.58060 eV ==== 
     psi = 0.165*[#  13]+0.165*[#  14]+0.165*[#  17]+0.165*[#  18]+0.110*[#   8]
          +0.110*[#   9]+0.037*[#   6]+0.037*[#   7]+0.007*[#  12]+0.007*[#  16]
          +0.006*[#   5]+0.006*[#  11]+0.006*[#  15]
    |psi|^2 = 0.986
==== e(  17) =    -2.07327 eV ==== 
     psi = 0.193*[#  13]+0.193*[#  14]+0.193*[#  17]+0.193*[#  18]+0.072*[#   8]
          +0.072*[#   9]+0.042*[#   6]+0.042*[#   7]
    |psi|^2 = 0.998
==== e(  18) =     2.23657 eV ==== 
     psi = 0.318*[#  10]+0.037*[#  12]+0.037*[#  16]+0.035*[#  11]+0.035*[#  15]
          +0.010*[#  13]+0.010*[#  14]+0.010*[#  17]+0.010*[#  18]
    |psi|^2 = 0.503
==== e(  19) =     2.82127 eV ==== 
     psi = 0.003*[#  10]
    |psi|^2 = 0.007
==== e(  20) =     2.95461 eV ==== 
     psi = 0.087*[#  10]+0.009*[#  11]+0.009*[#  15]+0.009*[#  12]+0.009*[#  16]
          +0.008*[#  13]+0.008*[#  14]+0.008*[#  17]+0.008*[#  18]+0.002*[#   5]
          
    |psi|^2 = 0.157

 k =   0.0000000000  0.2165063509  0.0000000000
==== e(   1) =  -106.00250 eV ==== 
     psi = 0.995*[#   1]+0.001*[#  12]+0.001*[#  16]
    |psi|^2 = 1.000
==== e(   2) =   -66.47609 eV ==== 
     psi = 0.999*[#   2]
    |psi|^2 = 1.000
==== e(   3) =   -66.42283 eV ==== 
     psi = 0.500*[#   3]+0.500*[#   4]
    |psi|^2 = 1.000
==== e(   4) =   -66.42272 eV ==== 
     psi = 0.500*[#   3]+0.500*[#   4]
    |psi|^2 = 1.000
==== e(   5) =   -15.53544 eV ==== 
     psi = 0.387*[#  11]+0.387*[#  15]+0.203*[#  10]+0.005*[#  12]+0.005*[#  16]
          +0.003*[#  13]+0.003*[#  14]+0.003*[#  17]+0.003*[#  18]
    |psi|^2 = 0.999
==== e(   6) =   -14.71797 eV ==== 
     psi = 0.489*[#  11]+0.489*[#  15]+0.003*[#   6]+0.003*[#   7]+0.002*[#  13]
          +0.002*[#  14]+0.002*[#  17]+0.002*[#  18]+0.002*[#  12]+0.002*[#  16]
          +0.001*[#   8]+0.001*[#   9]
    |psi|^2 = 0.998
==== e(   7) =    -6.62265 eV ==== 
     psi = 0.355*[#  12]+0.355*[#  16]+0.097*[#  10]+0.079*[#   5]+0.039*[#  11]
          +0.039*[#  15]+0.006*[#  13]+0.006*[#  14]+0.006*[#  17]+0.006*[#  18]
          +0.002*[#   1]+0.001*[#   8]+0.001*[#   9]
    |psi|^2 = 0.995
==== e(   8) =    -6.11103 eV ==== 
     psi = 0.163*[#   8]+0.163*[#   9]+0.110*[#   6]+0.110*[#   7]+0.088*[#  13]
          +0.088*[#  14]+0.088*[#  17]+0.088*[#  18]+0.046*[#  12]+0.046*[#  16]
          
    |psi|^2 = 0.992
==== e(   9) =    -5.79517 eV ==== 
     psi = 0.215*[#   6]+0.215*[#   7]+0.159*[#   8]+0.159*[#   9]+0.062*[#  13]
          +0.062*[#  14]+0.062*[#  17]+0.062*[#  18]
    |psi|^2 = 0.995
==== e(  10) =    -5.02404 eV ==== 
     psi = 0.146*[#   6]+0.146*[#   7]+0.117*[#  13]+0.117*[#  14]+0.117*[#  17]
          +0.117*[#  18]+0.109*[#   5]+0.028*[#  10]+0.017*[#   8]+0.017*[#   9]
          +0.014*[#  12]+0.014*[#  16]+0.010*[#  11]+0.010*[#  15]
    |psi|^2 = 0.983
==== e(  11) =    -4.41692 eV ==== 
     psi = 0.205*[#   6]+0.205*[#   7]+0.185*[#   8]+0.185*[#   9]+0.052*[#  13]
          +0.052*[#  14]+0.052*[#  17]+0.052*[#  18]
    |psi|^2 = 0.988
==== e(  12) =    -4.15732 eV ==== 
     psi = 0.396*[#   5]+0.158*[#   6]+0.158*[#   7]+0.081*[#   8]+0.081*[#   9]
          +0.027*[#  10]+0.015*[#  13]+0.015*[#  14]+0.015*[#  17]+0.015*[#  18]
          +0.008*[#  11]+0.008*[#  15]+0.007*[#  12]+0.007*[#  16]
    |psi|^2 = 0.989
==== e(  13) =    -3.55829 eV ==== 
     psi = 0.334*[#  12]+0.334*[#  16]+0.071*[#  13]+0.071*[#  14]+0.071*[#  17]
          +0.071*[#  18]+0.010*[#   5]+0.009*[#   8]+0.009*[#   9]
    |psi|^2 = 0.983
==== e(  14) =    -3.53038 eV ==== 
     psi = 0.359*[#   5]+0.110*[#   8]+0.110*[#   9]+0.075*[#  12]+0.075*[#  16]
          +0.053*[#  13]+0.053*[#  14]+0.053*[#  17]+0.053*[#  18]+0.022*[#   6]
          +0.022*[#   7]+0.002*[#  10]+0.002*[#  11]+0.002*[#  15]
    |psi|^2 = 0.993
==== e(  15) =    -3.20570 eV ==== 
     psi = 0.183*[#  13]+0.183*[#  14]+0.183*[#  17]+0.183*[#  18]+0.107*[#   8]
          +0.107*[#   9]+0.016*[#   6]+0.016*[#   7]
    |psi|^2 = 0.981
==== e(  16) =    -2.96498 eV ==== 
     psi = 0.112*[#   8]+0.112*[#   9]+0.103*[#  13]+0.103*[#  14]+0.103*[#  17]
          +0.103*[#  18]+0.094*[#  12]+0.094*[#  16]+0.056*[#   6]+0.056*[#   7]
          +0.038*[#   5]+0.009*[#  11]+0.009*[#  15]
    |psi|^2 = 0.993
==== e(  17) =    -2.13910 eV ==== 
     psi = 0.196*[#  13]+0.196*[#  14]+0.196*[#  17]+0.196*[#  18]+0.061*[#   6]
          +0.061*[#   7]+0.046*[#   8]+0.046*[#   9]
    |psi|^2 = 0.997
==== e(  18) =     2.43274 eV ==== 
     psi = 0.365*[#  10]+0.034*[#  12]+0.034*[#  16]+0.029*[#  11]+0.029*[#  15]
          +0.026*[#  13]+0.026*[#  14]+0.026*[#  17]+0.026*[#  18]+0.001*[#   5]
          
    |psi|^2 = 0.601
==== e(  19) =     2.67066 eV ==== 
     psi = 0.030*[#  10]+0.004*[#  12]+0.004*[#  16]+0.003*[#  11]+0.003*[#  15]
          
    |psi|^2 = 0.046
==== e(  20) =     3.00446 eV ==== 
     psi = 0.001*[#  10]
    |psi|^2 = 0.006

 k =   0.0000000000  0.2886751346  0.0000000000
==== e(   1) =  -106.00250 eV ==== 
     psi = 0.995*[#   1]+0.001*[#  12]+0.001*[#  16]
    |psi|^2 = 1.000
==== e(   2) =   -66.47608 eV ==== 
     psi = 0.999*[#   2]
    |psi|^2 = 1.000
==== e(   3) =   -66.42293 eV ==== 
     psi = 0.500*[#   3]+0.500*[#   4]
    |psi|^2 = 1.000
==== e(   4) =   -66.42275 eV ==== 
     psi = 0.500*[#   3]+0.500*[#   4]
    |psi|^2 = 1.000
==== e(   5) =   -15.35324 eV ==== 
     psi = 0.405*[#  11]+0.405*[#  15]+0.163*[#  10]+0.005*[#  12]+0.005*[#  16]
          +0.004*[#  13]+0.004*[#  14]+0.004*[#  17]+0.004*[#  18]
    |psi|^2 = 0.999
==== e(   6) =   -14.63490 eV ==== 
     psi = 0.487*[#  11]+0.487*[#  15]+0.004*[#   6]+0.004*[#   7]+0.002*[#   8]
          +0.002*[#   9]+0.002*[#  13]+0.002*[#  14]+0.002*[#  17]+0.002*[#  18]
          
    |psi|^2 = 0.998
==== e(   7) =    -6.55656 eV ==== 
     psi = 0.277*[#  12]+0.277*[#  16]+0.135*[#  10]+0.045*[#  11]+0.045*[#  15]
          +0.039*[#   5]+0.038*[#  13]+0.038*[#  14]+0.038*[#  17]+0.038*[#  18]
          +0.010*[#   8]+0.010*[#   9]+0.002*[#   1]+0.002*[#   6]+0.002*[#   7]
          
    |psi|^2 = 0.994
==== e(   8) =    -6.27969 eV ==== 
     psi = 0.128*[#   8]+0.128*[#   9]+0.112*[#  13]+0.112*[#  14]+0.112*[#  17]
          +0.112*[#  18]+0.071*[#  12]+0.071*[#  16]+0.068*[#   6]+0.068*[#   7]
          +0.004*[#   5]
    |psi|^2 = 0.989
==== e(   9) =    -5.78310 eV ==== 
     psi = 0.236*[#   6]+0.236*[#   7]+0.136*[#   8]+0.136*[#   9]+0.063*[#  13]
          +0.063*[#  14]+0.063*[#  17]+0.063*[#  18]
    |psi|^2 = 0.995
==== e(  10) =    -5.51913 eV ==== 
     psi = 0.123*[#   5]+0.120*[#   6]+0.120*[#   7]+0.109*[#  13]+0.109*[#  14]
          +0.109*[#  17]+0.109*[#  18]+0.078*[#  12]+0.078*[#  16]+0.018*[#  10]
          +0.005*[#  11]+0.005*[#  15]
    |psi|^2 = 0.985
==== e(  11) =    -4.47707 eV ==== 
     psi = 0.172*[#   8]+0.172*[#   9]+0.156*[#   6]+0.156*[#   7]+0.082*[#  13]
          +0.082*[#  14]+0.082*[#  17]+0.082*[#  18]
    |psi|^2 = 0.987
==== e(  12) =    -4.21423 eV ==== 
     psi = 0.339*[#   5]+0.212*[#   6]+0.212*[#   7]+0.063*[#   8]+0.063*[#   9]
          +0.022*[#  10]+0.014*[#  13]+0.014*[#  14]+0.014*[#  17]+0.014*[#  18]
          +0.007*[#  11]+0.007*[#  15]+0.004*[#  12]+0.004*[#  16]
    |psi|^2 = 0.988
==== e(  13) =    -3.90594 eV ==== 
     psi = 0.135*[#   8]+0.135*[#   9]+0.123*[#  12]+0.123*[#  16]+0.110*[#  13]
          +0.110*[#  14]+0.110*[#  17]+0.110*[#  18]+0.017*[#   5]+0.003*[#  11]
          +0.003*[#  15]+0.002*[#  10]
    |psi|^2 = 0.984
==== e(  14) =    -3.60365 eV ==== 
     psi = 0.421*[#   5]+0.115*[#  12]+0.115*[#  16]+0.068*[#   8]+0.068*[#   9]
          +0.037*[#   6]+0.037*[#   7]+0.032*[#  13]+0.032*[#  14]+0.032*[#  17]
          +0.032*[#  18]+0.002*[#  10]
    |psi|^2 = 0.994
==== e(  15) =    -3.42224 eV ==== 
     psi = 0.164*[#   8]+0.164*[#   9]+0.152*[#  13]+0.152*[#  14]+0.152*[#  17]
          +0.152*[#  18]+0.023*[#   6]+0.023*[#   7]
    |psi|^2 = 0.981
==== e(  16) =    -2.96070 eV ==== 
     psi = 0.267*[#  12]+0.267*[#  16]+0.087*[#   8]+0.087*[#   9]+0.051*[#   6]
          +0.051*[#   7]+0.049*[#   5]+0.030*[#  13]+0.030*[#  14]+0.030*[#  17]
          +0.030*[#  18]+0.007*[#  11]+0.007*[#  15]
    |psi|^2 = 0.995
==== e(  17) =    -2.19175 eV ==== 
     psi = 0.195*[#  13]+0.195*[#  14]+0.195*[#  17]+0.195*[#  18]+0.083*[#   6]
          +0.083*[#   7]+0.026*[#   8]+0.026*[#   9]
    |psi|^2 = 0.998
==== e(  18) =     1.95359 eV ==== 
     psi = 0.308*[#  10]+0.029*[#  13]+0.029*[#  14]+0.029*[#  17]+0.029*[#  18]
          +0.022*[#  12]+0.022*[#  16]+0.016*[#  11]+0.016*[#  15]+0.001*[#   8]
          +0.001*[#   9]+0.001*[#   1]+0.001*[#   5]
    |psi|^2 = 0.507
==== e(  19) =     2.93223 eV ==== 
     psi = 0.114*[#  10]+0.011*[#  12]+0.011*[#  16]+0.008*[#  11]+0.008*[#  15]
          +0.003*[#  13]+0.003*[#  14]+0.003*[#  17]+0.003*[#  18]
    |psi|^2 = 0.168
==== e(  20) =     3.22577 eV ==== 
     psi = 0.005*[#  10]+0.001*[#   8]+0.001*[#   9]
    |psi|^2 = 0.013

 k =   0.0000000000  0.3608439182  0.0000000000
==== e(   1) =  -106.00250 eV ==== 
     psi = 0.995*[#   1]
    |psi|^2 = 1.000
==== e(   2) =   -66.47606 eV ==== 
     psi = 0.999*[#   2]
    |psi|^2 = 1.000
==== e(   3) =   -66.42302 eV ==== 
     psi = 0.499*[#   3]+0.499*[#   4]
    |psi|^2 = 1.000
==== e(   4) =   -66.42277 eV ==== 
     psi = 0.500*[#   3]+0.500*[#   4]
    |psi|^2 = 1.000
==== e(   5) =   -15.14762 eV ==== 
     psi = 0.426*[#  11]+0.426*[#  15]+0.117*[#  10]+0.005*[#  12]+0.005*[#  16]
          +0.004*[#  13]+0.004*[#  14]+0.004*[#  17]+0.004*[#  18]
    |psi|^2 = 0.999
==== e(   6) =   -14.55735 eV ==== 
     psi = 0.486*[#  11]+0.486*[#  15]+0.006*[#   6]+0.006*[#   7]+0.003*[#   8]
          +0.003*[#   9]+0.002*[#  10]+0.001*[#  13]+0.001*[#  14]+0.001*[#  17]
          +0.001*[#  18]
    |psi|^2 = 0.999
==== e(   7) =    -6.78802 eV ==== 
     psi = 0.162*[#  10]+0.123*[#  13]+0.123*[#  14]+0.123*[#  17]+0.123*[#  18]
          +0.099*[#  12]+0.099*[#  16]+0.035*[#  11]+0.035*[#  15]+0.027*[#   8]
          +0.027*[#   9]+0.006*[#   6]+0.006*[#   7]+0.002*[#   1]+0.001*[#   5]
          
    |psi|^2 = 0.990
==== e(   8) =    -6.40842 eV ==== 
     psi = 0.125*[#  13]+0.125*[#  14]+0.125*[#  17]+0.125*[#  18]+0.111*[#  12]
          +0.111*[#  16]+0.066*[#   8]+0.066*[#   9]+0.051*[#   6]+0.051*[#   7]
          +0.012*[#  10]+0.007*[#  11]+0.007*[#  15]+0.006*[#   5]
    |psi|^2 = 0.989
==== e(   9) =    -5.77479 eV ==== 
     psi = 0.260*[#   6]+0.260*[#   7]+0.112*[#   8]+0.112*[#   9]+0.063*[#  13]
          +0.063*[#  14]+0.063*[#  17]+0.063*[#  18]
    |psi|^2 = 0.996
==== e(  10) =    -5.69783 eV ==== 
     psi = 0.214*[#  12]+0.214*[#  16]+0.132*[#   5]+0.096*[#   6]+0.096*[#   7]
          +0.048*[#  13]+0.048*[#  14]+0.048*[#  17]+0.048*[#  18]+0.020*[#   8]
          +0.020*[#   9]+0.002*[#  11]+0.002*[#  15]
    |psi|^2 = 0.989
==== e(  11) =    -4.51578 eV ==== 
     psi = 0.149*[#   8]+0.149*[#   9]+0.118*[#  13]+0.118*[#  14]+0.118*[#  17]
          +0.118*[#  18]+0.106*[#   6]+0.106*[#   7]
    |psi|^2 = 0.984
==== e(  12) =    -4.36694 eV ==== 
     psi = 0.175*[#   5]+0.119*[#   6]+0.119*[#   7]+0.088*[#  13]+0.088*[#  14]
          +0.088*[#  17]+0.088*[#  18]+0.076*[#  12]+0.076*[#  16]+0.027*[#   8]
          +0.027*[#   9]+0.008*[#  11]+0.008*[#  15]
    |psi|^2 = 0.990
==== e(  13) =    -4.20562 eV ==== 
     psi = 0.180*[#   8]+0.180*[#   9]+0.159*[#   5]+0.122*[#   6]+0.122*[#   7]
          +0.053*[#  12]+0.053*[#  16]+0.023*[#  10]+0.022*[#  13]+0.022*[#  14]
          +0.022*[#  17]+0.022*[#  18]+0.002*[#  11]+0.002*[#  15]
    |psi|^2 = 0.985
==== e(  14) =    -3.68934 eV ==== 
     psi = 0.471*[#   5]+0.089*[#  12]+0.089*[#  16]+0.089*[#   8]+0.089*[#   9]
          +0.045*[#   6]+0.045*[#   7]+0.018*[#  13]+0.018*[#  14]+0.018*[#  17]
          +0.018*[#  18]+0.003*[#  10]
    |psi|^2 = 0.994
==== e(  15) =    -3.64787 eV ==== 
     psi = 0.223*[#   8]+0.223*[#   9]+0.119*[#  13]+0.119*[#  14]+0.119*[#  17]
          +0.119*[#  18]+0.030*[#   6]+0.030*[#   7]
    |psi|^2 = 0.984
==== e(  16) =    -2.79827 eV ==== 
     psi = 0.302*[#  12]+0.302*[#  16]+0.080*[#   8]+0.080*[#   9]+0.050*[#   6]
          +0.050*[#   7]+0.048*[#   5]+0.018*[#  13]+0.018*[#  14]+0.018*[#  17]
          +0.018*[#  18]+0.005*[#  11]+0.005*[#  15]
    |psi|^2 = 0.995
==== e(  17) =    -2.22843 eV ==== 
     psi = 0.191*[#  13]+0.191*[#  14]+0.191*[#  17]+0.191*[#  18]+0.103*[#   6]
          +0.103*[#   7]+0.014*[#   8]+0.014*[#   9]
    |psi|^2 = 0.998
==== e(  18) =     1.49045 eV ==== 
     psi = 0.384*[#  10]+0.036*[#  13]+0.036*[#  14]+0.036*[#  17]+0.036*[#  18]
          +0.020*[#  12]+0.020*[#  16]+0.013*[#  11]+0.013*[#  15]+0.003*[#   8]
          +0.003*[#   9]+0.001*[#   1]
    |psi|^2 = 0.602
==== e(  19) =     3.05905 eV ==== 
     psi = 0.084*[#  10]+0.008*[#  12]+0.008*[#  16]+0.004*[#  11]+0.004*[#  15]
          +0.002*[#  13]+0.002*[#  14]+0.002*[#  17]+0.002*[#  18]+0.002*[#   8]
          +0.002*[#   9]+0.001*[#   6]+0.001*[#   7]
    |psi|^2 = 0.124
==== e(  20) =     3.48098 eV ==== 
     psi = 0.023*[#  10]+0.002*[#  12]+0.002*[#  16]+0.002*[#  13]+0.002*[#  14]
          +0.002*[#  17]+0.002*[#  18]+0.001*[#  11]+0.001*[#  15]
    |psi|^2 = 0.040

 k =   0.0000000000  0.4330127019  0.0000000000
==== e(   1) =  -106.00249 eV ==== 
     psi = 0.995*[#   1]
    |psi|^2 = 1.000
==== e(   2) =   -66.47605 eV ==== 
     psi = 0.999*[#   2]
    |psi|^2 = 1.000
==== e(   3) =   -66.42310 eV ==== 
     psi = 0.499*[#   3]+0.499*[#   4]
    |psi|^2 = 1.000
==== e(   4) =   -66.42279 eV ==== 
     psi = 0.500*[#   3]+0.500*[#   4]
    |psi|^2 = 1.000
==== e(   5) =   -14.94312 eV ==== 
     psi = 0.451*[#  11]+0.451*[#  15]+0.070*[#  10]+0.005*[#  12]+0.005*[#  16]
          +0.004*[#  13]+0.004*[#  14]+0.004*[#  17]+0.004*[#  18]
    |psi|^2 = 0.999
==== e(   6) =   -14.50525 eV ==== 
     psi = 0.484*[#  11]+0.484*[#  15]+0.007*[#   6]+0.007*[#   7]+0.006*[#  10]
          +0.004*[#   8]+0.004*[#   9]
    |psi|^2 = 0.999
==== e(   7) =    -7.18558 eV ==== 
     psi = 0.180*[#  10]+0.155*[#  13]+0.155*[#  14]+0.155*[#  17]+0.155*[#  18]
          +0.043*[#  12]+0.043*[#  16]+0.021*[#  11]+0.021*[#  15]+0.016*[#   8]
          +0.016*[#   9]+0.014*[#   6]+0.014*[#   7]+0.002*[#   1]
    |psi|^2 = 0.991
==== e(   8) =    -6.50878 eV ==== 
     psi = 0.159*[#  13]+0.159*[#  14]+0.159*[#  17]+0.159*[#  18]+0.097*[#  12]
          +0.097*[#  16]+0.036*[#   8]+0.036*[#   9]+0.031*[#   6]+0.031*[#   7]
          +0.009*[#  10]+0.006*[#  11]+0.006*[#  15]+0.001*[#   5]
    |psi|^2 = 0.987
==== e(   9) =    -5.77158 eV ==== 
     psi = 0.280*[#   6]+0.280*[#   7]+0.091*[#   8]+0.091*[#   9]+0.063*[#  13]
          +0.063*[#  14]+0.063*[#  17]+0.063*[#  18]
    |psi|^2 = 0.996
==== e(  10) =    -5.63219 eV ==== 
     psi = 0.246*[#  12]+0.246*[#  16]+0.099*[#   5]+0.097*[#   6]+0.097*[#   7]
          +0.064*[#   8]+0.064*[#   9]+0.016*[#  13]+0.016*[#  14]+0.016*[#  17]
          +0.016*[#  18]+0.006*[#  11]+0.006*[#  15]
    |psi|^2 = 0.991
==== e(  11) =    -4.62195 eV ==== 
     psi = 0.172*[#  12]+0.172*[#  16]+0.088*[#   5]+0.078*[#  13]+0.078*[#  14]
          +0.078*[#  17]+0.078*[#  18]+0.066*[#   8]+0.066*[#   9]+0.050*[#   6]
          +0.050*[#   7]+0.005*[#  11]+0.005*[#  15]+0.002*[#  10]
    |psi|^2 = 0.991
==== e(  12) =    -4.52242 eV ==== 
     psi = 0.161*[#  13]+0.161*[#  14]+0.161*[#  17]+0.161*[#  18]+0.108*[#   8]
          +0.108*[#   9]+0.059*[#   6]+0.059*[#   7]
    |psi|^2 = 0.980
==== e(  13) =    -4.25990 eV ==== 
     psi = 0.291*[#   5]+0.190*[#   6]+0.190*[#   7]+0.104*[#   8]+0.104*[#   9]
          +0.029*[#  12]+0.029*[#  16]+0.020*[#  10]+0.005*[#  13]+0.005*[#  14]
          +0.005*[#  17]+0.005*[#  18]+0.003*[#  11]+0.003*[#  15]
    |psi|^2 = 0.984
==== e(  14) =    -3.85316 eV ==== 
     psi = 0.291*[#   8]+0.291*[#   9]+0.081*[#  13]+0.081*[#  14]+0.081*[#  17]
          +0.081*[#  18]+0.042*[#   6]+0.042*[#   7]
    |psi|^2 = 0.988
==== e(  15) =    -3.79151 eV ==== 
     psi = 0.458*[#   5]+0.122*[#   8]+0.122*[#   9]+0.068*[#  12]+0.068*[#  16]
          +0.053*[#   6]+0.053*[#   7]+0.010*[#  13]+0.010*[#  14]+0.010*[#  17]
          +0.010*[#  18]+0.010*[#  10]
    |psi|^2 = 0.994
==== e(  16) =    -2.65338 eV ==== 
     psi = 0.300*[#  12]+0.300*[#  16]+0.078*[#   8]+0.078*[#   9]+0.055*[#   5]
          +0.053*[#   6]+0.053*[#   7]+0.017*[#  13]+0.017*[#  14]+0.017*[#  17]
          +0.017*[#  18]+0.004*[#  11]+0.004*[#  15]+0.001*[#  10]
    |psi|^2 = 0.995
==== e(  17) =    -2.25186 eV ==== 
     psi = 0.187*[#  13]+0.187*[#  14]+0.187*[#  17]+0.187*[#  18]+0.118*[#   6]
          +0.118*[#   7]+0.008*[#   8]+0.008*[#   9]
    |psi|^2 = 0.998
==== e(  18) =     1.13621 eV ==== 
     psi = 0.473*[#  10]+0.041*[#  13]+0.041*[#  14]+0.041*[#  17]+0.041*[#  18]
          +0.018*[#  12]+0.018*[#  16]+0.011*[#  11]+0.011*[#  15]+0.005*[#   8]
          +0.005*[#   9]+0.002*[#   1]
    |psi|^2 = 0.710
==== e(  19) =     3.05307 eV ==== 
     psi = 0.051*[#  10]+0.007*[#  12]+0.007*[#  16]+0.002*[#  11]+0.002*[#  15]
          +0.001*[#   8]+0.001*[#   9]+0.001*[#   6]+0.001*[#   7]+0.001*[#  13]
          +0.001*[#  14]+0.001*[#  17]+0.001*[#  18]
    |psi|^2 = 0.078
==== e(  20) =     3.49962 eV ==== 
     psi = 0.004*[#  10]+0.002*[#  13]+0.002*[#  14]+0.002*[#  17]+0.002*[#  18]
          +0.002*[#   8]+0.002*[#   9]+0.001*[#   5]
    |psi|^2 = 0.017

 k =   0.0000000000  0.5051814855  0.0000000000
==== e(   1) =  -106.00249 eV ==== 
     psi = 0.995*[#   1]
    |psi|^2 = 1.000
==== e(   2) =   -66.47604 eV ==== 
     psi = 0.999*[#   2]
    |psi|^2 = 1.000
==== e(   3) =   -66.42315 eV ==== 
     psi = 0.499*[#   3]+0.499*[#   4]
    |psi|^2 = 1.000
==== e(   4) =   -66.42280 eV ==== 
     psi = 0.500*[#   3]+0.500*[#   4]
    |psi|^2 = 1.000
==== e(   5) =   -14.77326 eV ==== 
     psi = 0.476*[#  11]+0.476*[#  15]+0.027*[#  10]+0.004*[#  12]+0.004*[#  16]
          +0.002*[#  13]+0.002*[#  14]+0.002*[#  17]+0.002*[#  18]
    |psi|^2 = 0.998
==== e(   6) =   -14.49381 eV ==== 
     psi = 0.478*[#  11]+0.478*[#  15]+0.018*[#  10]+0.008*[#   6]+0.008*[#   7]
          +0.005*[#   8]+0.005*[#   9]
    |psi|^2 = 0.999
==== e(   7) =    -7.48342 eV ==== 
     psi = 0.197*[#  10]+0.164*[#  13]+0.164*[#  14]+0.164*[#  17]+0.164*[#  18]
          +0.030*[#  12]+0.030*[#  16]+0.019*[#   6]+0.019*[#   7]+0.011*[#  11]
          +0.011*[#  15]+0.010*[#   8]+0.010*[#   9]+0.002*[#   1]+0.001*[#   5]
          
    |psi|^2 = 0.994
==== e(   8) =    -6.58220 eV ==== 
     psi = 0.188*[#  13]+0.188*[#  14]+0.188*[#  17]+0.188*[#  18]+0.091*[#  12]
          +0.091*[#  16]+0.011*[#   8]+0.011*[#   9]+0.009*[#   6]+0.009*[#   7]
          +0.005*[#  11]+0.005*[#  15]+0.003*[#  10]
    |psi|^2 = 0.986
==== e(   9) =    -5.77181 eV ==== 
     psi = 0.294*[#   6]+0.294*[#   7]+0.078*[#   8]+0.078*[#   9]+0.063*[#  13]
          +0.063*[#  14]+0.063*[#  17]+0.063*[#  18]
    |psi|^2 = 0.997
==== e(  10) =    -5.58350 eV ==== 
     psi = 0.192*[#  12]+0.192*[#  16]+0.132*[#   8]+0.132*[#   9]+0.124*[#   6]
          +0.124*[#   7]+0.056*[#   5]+0.008*[#  11]+0.008*[#  15]+0.007*[#  13]
          +0.007*[#  14]+0.007*[#  17]+0.007*[#  18]
    |psi|^2 = 0.995
==== e(  11) =    -4.68470 eV ==== 
     psi = 0.306*[#  12]+0.306*[#  16]+0.057*[#   5]+0.055*[#  13]+0.055*[#  14]
          +0.055*[#  17]+0.055*[#  18]+0.026*[#   8]+0.026*[#   9]+0.018*[#   6]
          +0.018*[#   7]+0.003*[#  10]+0.003*[#  11]+0.003*[#  15]
    |psi|^2 = 0.986
==== e(  12) =    -4.50191 eV ==== 
     psi = 0.212*[#  13]+0.212*[#  14]+0.212*[#  17]+0.212*[#  18]+0.045*[#   8]
          +0.045*[#   9]+0.019*[#   6]+0.019*[#   7]
    |psi|^2 = 0.975
==== e(  13) =    -4.30167 eV ==== 
     psi = 0.409*[#   5]+0.192*[#   6]+0.192*[#   7]+0.055*[#   8]+0.055*[#   9]
          +0.022*[#  12]+0.022*[#  16]+0.012*[#  10]+0.004*[#  13]+0.004*[#  14]
          +0.004*[#  17]+0.004*[#  18]+0.003*[#  11]+0.003*[#  15]
    |psi|^2 = 0.984
==== e(  14) =    -4.00847 eV ==== 
     psi = 0.371*[#   8]+0.371*[#   9]+0.058*[#   6]+0.058*[#   7]+0.034*[#  13]
          +0.034*[#  14]+0.034*[#  17]+0.034*[#  18]
    |psi|^2 = 0.994
==== e(  15) =    -3.89631 eV ==== 
     psi = 0.404*[#   5]+0.174*[#   8]+0.174*[#   9]+0.070*[#   6]+0.070*[#   7]
          +0.030*[#  12]+0.030*[#  16]+0.022*[#  10]+0.005*[#  13]+0.005*[#  14]
          +0.005*[#  17]+0.005*[#  18]
    |psi|^2 = 0.995
==== e(  16) =    -2.56496 eV ==== 
     psi = 0.290*[#  12]+0.290*[#  16]+0.077*[#   8]+0.077*[#   9]+0.065*[#   5]
          +0.056*[#   6]+0.056*[#   7]+0.019*[#  13]+0.019*[#  14]+0.019*[#  17]
          +0.019*[#  18]+0.004*[#  10]+0.004*[#  11]+0.004*[#  15]
    |psi|^2 = 0.996
==== e(  17) =    -2.26483 eV ==== 
     psi = 0.183*[#  13]+0.183*[#  14]+0.183*[#  17]+0.183*[#  18]+0.127*[#   6]
          +0.127*[#   7]+0.005*[#   8]+0.005*[#   9]
    |psi|^2 = 0.998
==== e(  18) =     0.92093 eV ==== 
     psi = 0.544*[#  10]+0.044*[#  13]+0.044*[#  14]+0.044*[#  17]+0.044*[#  18]
          +0.018*[#  12]+0.018*[#  16]+0.009*[#  11]+0.009*[#  15]+0.007*[#   8]
          +0.007*[#   9]+0.002*[#   1]
    |psi|^2 = 0.792
==== e(  19) =     2.99271 eV ==== 
     psi = 0.014*[#  10]+0.005*[#  12]+0.005*[#  16]
    |psi|^2 = 0.030
==== e(  20) =     3.53519 eV ==== 
     psi = 0.002*[#   5]+0.002*[#   8]+0.002*[#   9]+0.001*[#   6]+0.001*[#   7]
          +0.001*[#  13]+0.001*[#  14]+0.001*[#  17]+0.001*[#  18]
    |psi|^2 = 0.014

 k =   0.0000000000 -0.5773502692  0.0000000000
==== e(   1) =  -106.00249 eV ==== 
     psi = 0.995*[#   1]+0.001*[#  13]+0.001*[#  14]+0.001*[#  17]+0.001*[#  18]
          
    |psi|^2 = 1.000
==== e(   2) =   -66.47603 eV ==== 
     psi = 0.999*[#   2]
    |psi|^2 = 1.000
==== e(   3) =   -66.42317 eV ==== 
     psi = 0.499*[#   3]+0.499*[#   4]
    |psi|^2 = 1.000
==== e(   4) =   -66.42281 eV ==== 
     psi = 0.500*[#   3]+0.500*[#   4]
    |psi|^2 = 1.000
==== e(   5) =   -14.69586 eV ==== 
     psi = 0.492*[#  11]+0.492*[#  15]+0.004*[#  12]+0.004*[#  16]+0.001*[#  13]
          +0.001*[#  14]+0.001*[#  17]+0.001*[#  18]
    |psi|^2 = 0.997
==== e(   6) =   -14.50545 eV ==== 
     psi = 0.468*[#  11]+0.468*[#  15]+0.033*[#  10]+0.009*[#   6]+0.009*[#   7]
          +0.005*[#   8]+0.005*[#   9]
    |psi|^2 = 1.000
==== e(   7) =    -7.59056 eV ==== 
     psi = 0.204*[#  10]+0.166*[#  13]+0.166*[#  14]+0.166*[#  17]+0.166*[#  18]
          +0.027*[#  12]+0.027*[#  16]+0.020*[#   6]+0.020*[#   7]+0.009*[#   8]
          +0.009*[#   9]+0.006*[#  11]+0.006*[#  15]+0.002*[#   1]+0.002*[#   5]
          
    |psi|^2 = 0.995
==== e(   8) =    -6.60895 eV ==== 
     psi = 0.199*[#  13]+0.199*[#  14]+0.199*[#  17]+0.199*[#  18]+0.089*[#  12]
          +0.089*[#  16]+0.005*[#  11]+0.005*[#  15]
    |psi|^2 = 0.985
==== e(   9) =    -5.77239 eV ==== 
     psi = 0.298*[#   6]+0.298*[#   7]+0.073*[#   8]+0.073*[#   9]+0.063*[#  13]
          +0.063*[#  14]+0.063*[#  17]+0.063*[#  18]
    |psi|^2 = 0.997
==== e(  10) =    -5.58193 eV ==== 
     psi = 0.163*[#   8]+0.163*[#   9]+0.161*[#  12]+0.161*[#  16]+0.137*[#   6]
          +0.137*[#   7]+0.040*[#   5]+0.008*[#  11]+0.008*[#  15]+0.004*[#  13]
          +0.004*[#  14]+0.004*[#  17]+0.004*[#  18]
    |psi|^2 = 0.996
==== e(  11) =    -4.65571 eV ==== 
     psi = 0.396*[#  12]+0.396*[#  16]+0.047*[#  13]+0.047*[#  14]+0.047*[#  17]
          +0.047*[#  18]+0.002*[#  11]+0.002*[#  15]
    |psi|^2 = 0.982
==== e(  12) =    -4.48530 eV ==== 
     psi = 0.243*[#  13]+0.243*[#  14]+0.243*[#  17]+0.243*[#  18]
    |psi|^2 = 0.972
==== e(  13) =    -4.33067 eV ==== 
     psi = 0.520*[#   5]+0.190*[#   6]+0.190*[#   7]+0.028*[#   8]+0.028*[#   9]
          +0.006*[#  10]+0.003*[#  13]+0.003*[#  14]+0.003*[#  17]+0.003*[#  18]
          +0.003*[#  11]+0.003*[#  15]+0.001*[#  12]+0.001*[#  16]
    |psi|^2 = 0.984
==== e(  14) =    -4.07108 eV ==== 
     psi = 0.421*[#   8]+0.421*[#   9]+0.070*[#   6]+0.070*[#   7]+0.004*[#  13]
          +0.004*[#  14]+0.004*[#  17]+0.004*[#  18]
    |psi|^2 = 0.997
==== e(  15) =    -3.94557 eV ==== 
     psi = 0.362*[#   5]+0.207*[#   8]+0.207*[#   9]+0.084*[#   6]+0.084*[#   7]
          +0.032*[#  10]+0.004*[#  12]+0.004*[#  16]+0.003*[#  13]+0.003*[#  14]
          +0.003*[#  17]+0.003*[#  18]
    |psi|^2 = 0.996
==== e(  16) =    -2.53659 eV ==== 
     psi = 0.285*[#  12]+0.285*[#  16]+0.076*[#   8]+0.076*[#   9]+0.069*[#   5]
          +0.058*[#   6]+0.058*[#   7]+0.020*[#  13]+0.020*[#  14]+0.020*[#  17]
          +0.020*[#  18]+0.005*[#  10]+0.003*[#  11]+0.003*[#  15]
    |psi|^2 = 0.997
==== e(  17) =    -2.26897 eV ==== 
     psi = 0.182*[#  13]+0.182*[#  14]+0.182*[#  17]+0.182*[#  18]+0.130*[#   6]
          +0.130*[#   7]+0.004*[#   8]+0.004*[#   9]
    |psi|^2 = 0.998
==== e(  18) =     0.85002 eV ==== 
     psi = 0.570*[#  10]+0.045*[#  13]+0.045*[#  14]+0.045*[#  17]+0.045*[#  18]
          +0.018*[#  12]+0.018*[#  16]+0.009*[#  11]+0.009*[#  15]+0.008*[#   8]
          +0.008*[#   9]+0.002*[#   1]
    |psi|^2 = 0.823
==== e(  19) =     2.95850 eV ==== 
     psi = 0.005*[#  12]+0.005*[#  16]
    |psi|^2 = 0.011
==== e(  20) =     3.67865 eV ==== 
     psi = 0.004*[#   5]+0.003*[#   6]+0.003*[#   7]+0.002*[#  12]+0.002*[#  16]
          +0.002*[#   8]+0.002*[#   9]
    |psi|^2 = 0.019

 k =   0.0625000000  0.1082531755  0.0000000000
==== e(   1) =  -106.00250 eV ==== 
     psi = 0.995*[#   1]+0.002*[#  12]+0.002*[#  16]
    |psi|^2 = 1.000
==== e(   2) =   -66.47611 eV ==== 
     psi = 0.999*[#   2]
    |psi|^2 = 1.000
==== e(   3) =   -66.42274 eV ==== 
     psi = 0.500*[#   3]+0.500*[#   4]
    |psi|^2 = 1.000
==== e(   4) =   -66.42270 eV ==== 
     psi = 0.500*[#   3]+0.500*[#   4]
    |psi|^2 = 1.000
==== e(   5) =   -15.70607 eV ==== 
     psi = 0.372*[#  11]+0.372*[#  15]+0.241*[#  10]+0.005*[#  12]+0.005*[#  16]
          +0.001*[#  13]+0.001*[#  14]+0.001*[#  17]+0.001*[#  18]
    |psi|^2 = 1.000
==== e(   6) =   -14.80494 eV ==== 
     psi = 0.493*[#  11]+0.493*[#  15]+0.002*[#  12]+0.002*[#  16]
    |psi|^2 = 0.997
==== e(   7) =    -6.77213 eV ==== 
     psi = 0.371*[#  12]+0.371*[#  16]+0.096*[#   5]+0.079*[#  10]+0.036*[#  11]
          +0.036*[#  15]+0.002*[#   1]
    |psi|^2 = 0.994
==== e(   8) =    -5.92962 eV ==== 
     psi = 0.183*[#   8]+0.183*[#   9]+0.157*[#   6]+0.157*[#   7]+0.068*[#  13]
          +0.068*[#  14]+0.068*[#  17]+0.068*[#  18]+0.022*[#  12]+0.022*[#  16]
          
    |psi|^2 = 0.994
==== e(   9) =    -5.81239 eV ==== 
     psi = 0.196*[#   6]+0.196*[#   7]+0.180*[#   8]+0.180*[#   9]+0.061*[#  13]
          +0.061*[#  14]+0.061*[#  17]+0.061*[#  18]
    |psi|^2 = 0.995
==== e(  10) =    -4.41284 eV ==== 
     psi = 0.296*[#   6]+0.296*[#   7]+0.145*[#   8]+0.145*[#   9]+0.023*[#  13]
          +0.023*[#  14]+0.023*[#  17]+0.023*[#  18]+0.006*[#  12]+0.006*[#  16]
          
    |psi|^2 = 0.988
==== e(  11) =    -4.39435 eV ==== 
     psi = 0.209*[#   6]+0.209*[#   7]+0.158*[#   8]+0.158*[#   9]+0.065*[#   5]
          +0.044*[#  13]+0.044*[#  14]+0.044*[#  17]+0.044*[#  18]+0.008*[#  10]
          +0.003*[#  11]+0.003*[#  15]
    |psi|^2 = 0.988
==== e(  12) =    -4.03862 eV ==== 
     psi = 0.668*[#   5]+0.042*[#   6]+0.042*[#   7]+0.038*[#   8]+0.038*[#   9]
          +0.032*[#  10]+0.019*[#  13]+0.019*[#  14]+0.019*[#  17]+0.019*[#  18]
          +0.017*[#  12]+0.017*[#  16]+0.009*[#  11]+0.009*[#  15]
    |psi|^2 = 0.991
==== e(  13) =    -3.65320 eV ==== 
     psi = 0.466*[#  12]+0.466*[#  16]+0.016*[#   8]+0.016*[#   9]+0.006*[#  13]
          +0.006*[#  14]+0.006*[#  17]+0.006*[#  18]+0.002*[#  11]+0.002*[#  15]
          
    |psi|^2 = 0.992
==== e(  14) =    -3.24842 eV ==== 
     psi = 0.166*[#  13]+0.166*[#  14]+0.166*[#  17]+0.166*[#  18]+0.159*[#   5]
          +0.032*[#   8]+0.032*[#   9]+0.030*[#  12]+0.030*[#  16]+0.014*[#   6]
          +0.014*[#   7]+0.007*[#  10]+0.004*[#  11]+0.004*[#  15]
    |psi|^2 = 0.987
==== e(  15) =    -3.02551 eV ==== 
     psi = 0.209*[#  13]+0.209*[#  14]+0.209*[#  17]+0.209*[#  18]+0.066*[#   8]
          +0.066*[#   9]+0.006*[#   6]+0.006*[#   7]
    |psi|^2 = 0.982
==== e(  16) =    -2.38791 eV ==== 
     psi = 0.184*[#  13]+0.184*[#  14]+0.184*[#  17]+0.184*[#  18]+0.085*[#   8]
          +0.085*[#   9]+0.037*[#   6]+0.037*[#   7]+0.003*[#  11]+0.003*[#  15]
          +0.001*[#  12]+0.001*[#  16]
    |psi|^2 = 0.989
==== e(  17) =    -2.10480 eV ==== 
     psi = 0.186*[#  13]+0.186*[#  14]+0.186*[#  17]+0.186*[#  18]+0.088*[#   8]
          +0.088*[#   9]+0.036*[#   6]+0.036*[#   7]
    |psi|^2 = 0.995
==== e(  18) =     2.14529 eV ==== 
     psi = 0.328*[#  10]+0.039*[#  12]+0.039*[#  16]+0.039*[#  11]+0.039*[#  15]
          +0.008*[#  13]+0.008*[#  14]+0.008*[#  17]+0.008*[#  18]
    |psi|^2 = 0.519
==== e(  19) =     2.78991 eV ==== 
 
    |psi|^2 = 0.002
==== e(  20) =     3.10822 eV ==== 
     psi = 0.003*[#  13]+0.003*[#  14]+0.003*[#  17]+0.003*[#  18]
    |psi|^2 = 0.015

 k =   0.0625000000  0.1804219591  0.0000000000
==== e(   1) =  -106.00250 eV ==== 
     psi = 0.995*[#   1]+0.002*[#  12]+0.002*[#  16]
    |psi|^2 = 1.000
==== e(   2) =   -66.47610 eV ==== 
     psi = 0.999*[#   2]
    |psi|^2 = 1.000
==== e(   3) =   -66.42280 eV ==== 
     psi = 0.500*[#   3]+0.500*[#   4]
    |psi|^2 = 1.000
==== e(   4) =   -66.42272 eV ==== 
     psi = 0.500*[#   3]+0.500*[#   4]
    |psi|^2 = 1.000
==== e(   5) =   -15.59085 eV ==== 
     psi = 0.382*[#  11]+0.382*[#  15]+0.215*[#  10]+0.005*[#  12]+0.005*[#  16]
          +0.002*[#  13]+0.002*[#  14]+0.002*[#  17]+0.002*[#  18]
    |psi|^2 = 1.000
==== e(   6) =   -14.74526 eV ==== 
     psi = 0.490*[#  11]+0.490*[#  15]+0.002*[#   6]+0.002*[#   7]+0.002*[#  12]
          +0.002*[#  13]+0.002*[#  14]+0.002*[#  16]+0.002*[#  17]+0.002*[#  18]
          
    |psi|^2 = 0.998
==== e(   7) =    -6.66570 eV ==== 
     psi = 0.363*[#  12]+0.363*[#  16]+0.090*[#  10]+0.086*[#   5]+0.038*[#  11]
          +0.038*[#  15]+0.004*[#  13]+0.004*[#  14]+0.004*[#  17]+0.004*[#  18]
          +0.002*[#   1]
    |psi|^2 = 0.995
==== e(   8) =    -6.05000 eV ==== 
     psi = 0.171*[#   8]+0.171*[#   9]+0.125*[#   6]+0.125*[#   7]+0.080*[#  13]
          +0.080*[#  14]+0.080*[#  17]+0.080*[#  18]+0.040*[#  12]+0.040*[#  16]
          
    |psi|^2 = 0.993
==== e(   9) =    -5.80760 eV ==== 
     psi = 0.209*[#   6]+0.209*[#   7]+0.164*[#   8]+0.164*[#   9]+0.062*[#  13]
          +0.062*[#  14]+0.062*[#  17]+0.062*[#  18]
    |psi|^2 = 0.995
==== e(  10) =    -4.75428 eV ==== 
     psi = 0.147*[#   6]+0.147*[#   7]+0.119*[#   5]+0.102*[#  13]+0.102*[#  14]
          +0.102*[#  17]+0.102*[#  18]+0.053*[#   8]+0.053*[#   9]+0.025*[#  10]
          +0.009*[#  11]+0.009*[#  15]+0.006*[#  12]+0.006*[#  16]
    |psi|^2 = 0.984
==== e(  11) =    -4.50568 eV ==== 
     psi = 0.239*[#   6]+0.239*[#   7]+0.121*[#   8]+0.121*[#   9]+0.054*[#  13]
          +0.054*[#  14]+0.054*[#  17]+0.054*[#  18]+0.035*[#   5]+0.005*[#  10]
          +0.002*[#  11]+0.002*[#  15]+0.002*[#  12]+0.002*[#  16]
    |psi|^2 = 0.986
==== e(  12) =    -4.10817 eV ==== 
     psi = 0.389*[#   5]+0.132*[#   6]+0.132*[#   7]+0.118*[#   8]+0.118*[#   9]
          +0.024*[#  10]+0.012*[#  13]+0.012*[#  14]+0.012*[#  17]+0.012*[#  18]
          +0.008*[#  12]+0.008*[#  16]+0.007*[#  11]+0.007*[#  15]
    |psi|^2 = 0.990
==== e(  13) =    -3.54601 eV ==== 
     psi = 0.424*[#  12]+0.424*[#  16]+0.029*[#  13]+0.029*[#  14]+0.029*[#  17]
          +0.029*[#  18]+0.008*[#   8]+0.008*[#   9]+0.007*[#   5]
    |psi|^2 = 0.988
==== e(  14) =    -3.45572 eV ==== 
     psi = 0.341*[#   5]+0.091*[#  13]+0.091*[#  14]+0.091*[#  17]+0.091*[#  18]
          +0.067*[#   8]+0.067*[#   9]+0.049*[#  12]+0.049*[#  16]+0.023*[#   6]
          +0.023*[#   7]+0.004*[#  10]+0.002*[#  11]+0.002*[#  15]
    |psi|^2 = 0.990
==== e(  15) =    -3.24402 eV ==== 
     psi = 0.161*[#   8]+0.161*[#   9]+0.154*[#  13]+0.154*[#  14]+0.154*[#  17]
          +0.154*[#  18]+0.009*[#   6]+0.009*[#   7]+0.009*[#   5]+0.007*[#  12]
          +0.007*[#  16]+0.002*[#  11]+0.002*[#  15]
    |psi|^2 = 0.984
==== e(  16) =    -2.68047 eV ==== 
     psi = 0.174*[#  13]+0.174*[#  14]+0.174*[#  17]+0.174*[#  18]+0.063*[#   8]
          +0.063*[#   9]+0.056*[#   6]+0.056*[#   7]+0.021*[#  12]+0.021*[#  16]
          +0.005*[#  11]+0.005*[#  15]+0.004*[#   5]
    |psi|^2 = 0.989
==== e(  17) =    -2.22632 eV ==== 
     psi = 0.188*[#  13]+0.188*[#  14]+0.188*[#  17]+0.188*[#  18]+0.065*[#   8]
          +0.065*[#   9]+0.051*[#   6]+0.051*[#   7]+0.002*[#  12]+0.002*[#  16]
          +0.001*[#   5]
    |psi|^2 = 0.993
==== e(  18) =     2.47101 eV ==== 
     psi = 0.321*[#  10]+0.034*[#  12]+0.034*[#  16]+0.030*[#  11]+0.030*[#  15]
          +0.014*[#  13]+0.014*[#  14]+0.014*[#  17]+0.014*[#  18]
    |psi|^2 = 0.508
==== e(  19) =     2.86617 eV ==== 
     psi = 0.068*[#  10]+0.009*[#  13]+0.009*[#  14]+0.009*[#  17]+0.009*[#  18]
          +0.006*[#  12]+0.006*[#  16]+0.006*[#  11]+0.006*[#  15]+0.002*[#   5]
          
    |psi|^2 = 0.129
==== e(  20) =     2.95282 eV ==== 
     psi = 0.044*[#  10]+0.005*[#  13]+0.005*[#  14]+0.005*[#  17]+0.005*[#  18]
          +0.004*[#  12]+0.004*[#  16]+0.004*[#  11]+0.004*[#  15]+0.001*[#   5]
          
    |psi|^2 = 0.082

 k =   0.0625000000  0.2525907428  0.0000000000
==== e(   1) =  -106.00250 eV ==== 
     psi = 0.995*[#   1]+0.001*[#  12]+0.001*[#  16]
    |psi|^2 = 1.000
==== e(   2) =   -66.47608 eV ==== 
     psi = 0.999*[#   2]
    |psi|^2 = 1.000
==== e(   3) =   -66.42289 eV ==== 
     psi = 0.500*[#   3]+0.500*[#   4]
    |psi|^2 = 1.000
==== e(   4) =   -66.42274 eV ==== 
     psi = 0.500*[#   3]+0.500*[#   4]
    |psi|^2 = 1.000
==== e(   5) =   -15.42889 eV ==== 
     psi = 0.397*[#  11]+0.397*[#  15]+0.180*[#  10]+0.005*[#  12]+0.005*[#  16]
          +0.004*[#  13]+0.004*[#  14]+0.004*[#  17]+0.004*[#  18]
    |psi|^2 = 0.999
==== e(   6) =   -14.66763 eV ==== 
     psi = 0.488*[#  11]+0.488*[#  15]+0.004*[#   6]+0.004*[#   7]+0.002*[#  13]
          +0.002*[#  14]+0.002*[#  17]+0.002*[#  18]+0.002*[#   8]+0.002*[#   9]
          +0.001*[#  12]+0.001*[#  16]
    |psi|^2 = 0.998
==== e(   7) =    -6.55855 eV ==== 
     psi = 0.327*[#  12]+0.327*[#  16]+0.115*[#  10]+0.060*[#   5]+0.042*[#  11]
          +0.042*[#  15]+0.017*[#  13]+0.017*[#  14]+0.017*[#  17]+0.017*[#  18]
          +0.003*[#   8]+0.003*[#   9]+0.002*[#   6]+0.002*[#   7]+0.002*[#   1]
          
    |psi|^2 = 0.994
==== e(   8) =    -6.20009 eV ==== 
     psi = 0.150*[#   8]+0.150*[#   9]+0.101*[#  13]+0.101*[#  14]+0.101*[#  17]
          +0.101*[#  18]+0.085*[#   6]+0.085*[#   7]+0.057*[#  12]+0.057*[#  16]
          
    |psi|^2 = 0.990
==== e(   9) =    -5.80616 eV ==== 
     psi = 0.227*[#   6]+0.227*[#   7]+0.140*[#   8]+0.140*[#   9]+0.064*[#  13]
          +0.064*[#  14]+0.064*[#  17]+0.064*[#  18]+0.003*[#  12]+0.003*[#  16]
          +0.002*[#   5]
    |psi|^2 = 0.995
==== e(  10) =    -5.27058 eV ==== 
     psi = 0.125*[#  13]+0.125*[#  14]+0.125*[#  17]+0.125*[#  18]+0.122*[#   5]
          +0.109*[#   6]+0.109*[#   7]+0.035*[#  12]+0.035*[#  16]+0.029*[#  10]
          +0.012*[#   8]+0.012*[#   9]+0.009*[#  11]+0.009*[#  15]
    |psi|^2 = 0.983
==== e(  11) =    -4.60895 eV ==== 
     psi = 0.208*[#   6]+0.208*[#   7]+0.096*[#   8]+0.096*[#   9]+0.080*[#  13]
          +0.080*[#  14]+0.080*[#  17]+0.080*[#  18]+0.042*[#   5]+0.006*[#  10]
          +0.003*[#  11]+0.003*[#  15]
    |psi|^2 = 0.985
==== e(  12) =    -4.14116 eV ==== 
     psi = 0.273*[#   5]+0.172*[#   6]+0.172*[#   7]+0.153*[#   8]+0.153*[#   9]
          +0.018*[#  10]+0.007*[#  13]+0.007*[#  14]+0.007*[#  17]+0.007*[#  18]
          +0.006*[#  12]+0.006*[#  16]+0.005*[#  11]+0.005*[#  15]
    |psi|^2 = 0.990
==== e(  13) =    -3.72549 eV ==== 
     psi = 0.140*[#  12]+0.140*[#  16]+0.115*[#   8]+0.115*[#   9]+0.107*[#  13]
          +0.107*[#  14]+0.107*[#  17]+0.107*[#  18]+0.038*[#   5]+0.002*[#  11]
          +0.002*[#  15]+0.002*[#   6]+0.002*[#   7]
    |psi|^2 = 0.983
==== e(  14) =    -3.57428 eV ==== 
     psi = 0.421*[#   5]+0.107*[#  12]+0.107*[#  16]+0.060*[#   8]+0.060*[#   9]
          +0.045*[#  13]+0.045*[#  14]+0.045*[#  17]+0.045*[#  18]+0.027*[#   6]
          +0.027*[#   7]+0.002*[#  10]
    |psi|^2 = 0.992
==== e(  15) =    -3.36912 eV ==== 
     psi = 0.157*[#   8]+0.157*[#   9]+0.113*[#  12]+0.113*[#  16]+0.100*[#  13]
          +0.100*[#  14]+0.100*[#  17]+0.100*[#  18]+0.017*[#   6]+0.017*[#   7]
          +0.009*[#   5]
    |psi|^2 = 0.986
==== e(  16) =    -2.89278 eV ==== 
     psi = 0.138*[#  12]+0.138*[#  16]+0.102*[#  13]+0.102*[#  14]+0.102*[#  17]
          +0.102*[#  18]+0.069*[#   8]+0.069*[#   9]+0.066*[#   6]+0.066*[#   7]
          +0.024*[#   5]+0.006*[#  11]+0.006*[#  15]
    |psi|^2 = 0.992
==== e(  17) =    -2.29339 eV ==== 
     psi = 0.190*[#  13]+0.190*[#  14]+0.190*[#  17]+0.190*[#  18]+0.075*[#   6]
          +0.075*[#   7]+0.035*[#   8]+0.035*[#   9]+0.005*[#  12]+0.005*[#  16]
          
    |psi|^2 = 0.993
==== e(  18) =     2.33754 eV ==== 
     psi = 0.324*[#  10]+0.030*[#  13]+0.030*[#  14]+0.030*[#  17]+0.030*[#  18]
          +0.026*[#  12]+0.026*[#  16]+0.020*[#  11]+0.020*[#  15]+0.001*[#   5]
          +0.001*[#   8]+0.001*[#   9]
    |psi|^2 = 0.543
==== e(  19) =     2.87246 eV ==== 
     psi = 0.093*[#  10]+0.010*[#  12]+0.010*[#  16]+0.007*[#  11]+0.007*[#  15]
          +0.003*[#  13]+0.003*[#  14]+0.003*[#  17]+0.003*[#  18]
    |psi|^2 = 0.138
==== e(  20) =     3.11806 eV ==== 
     psi = 0.001*[#   8]+0.001*[#   9]
    |psi|^2 = 0.006

 k =   0.0625000000  0.3247595264  0.0000000000
==== e(   1) =  -106.00250 eV ==== 
     psi = 0.995*[#   1]
    |psi|^2 = 1.000
==== e(   2) =   -66.47607 eV ==== 
     psi = 0.999*[#   2]
    |psi|^2 = 1.000
==== e(   3) =   -66.42298 eV ==== 
     psi = 0.499*[#   3]+0.499*[#   4]
    |psi|^2 = 1.000
==== e(   4) =   -66.42277 eV ==== 
     psi = 0.500*[#   3]+0.500*[#   4]
    |psi|^2 = 1.000
==== e(   5) =   -15.23448 eV ==== 
     psi = 0.417*[#  11]+0.417*[#  15]+0.137*[#  10]+0.005*[#  12]+0.005*[#  16]
          +0.004*[#  13]+0.004*[#  14]+0.004*[#  17]+0.004*[#  18]
    |psi|^2 = 0.999
==== e(   6) =   -14.58659 eV ==== 
     psi = 0.487*[#  11]+0.487*[#  15]+0.005*[#   6]+0.005*[#   7]+0.003*[#   8]
          +0.003*[#   9]+0.002*[#  13]+0.002*[#  14]+0.002*[#  17]+0.002*[#  18]
          
    |psi|^2 = 0.998
==== e(   7) =    -6.61946 eV ==== 
     psi = 0.176*[#  12]+0.176*[#  16]+0.156*[#  10]+0.083*[#  13]+0.083*[#  14]
          +0.083*[#  17]+0.083*[#  18]+0.042*[#  11]+0.042*[#  15]+0.020*[#   8]
          +0.020*[#   9]+0.012*[#   5]+0.007*[#   6]+0.007*[#   7]+0.002*[#   1]
          
    |psi|^2 = 0.992
==== e(   8) =    -6.35088 eV ==== 
     psi = 0.119*[#  13]+0.119*[#  14]+0.119*[#  17]+0.119*[#  18]+0.097*[#   8]
          +0.097*[#   9]+0.096*[#  12]+0.096*[#  16]+0.054*[#   6]+0.054*[#   7]
          +0.007*[#   5]+0.005*[#  10]+0.003*[#  11]+0.003*[#  15]
    |psi|^2 = 0.989
==== e(   9) =    -5.80659 eV ==== 
     psi = 0.229*[#   6]+0.229*[#   7]+0.110*[#   8]+0.110*[#   9]+0.061*[#  13]
          +0.061*[#  14]+0.061*[#  17]+0.061*[#  18]+0.028*[#  12]+0.028*[#  16]
          +0.015*[#   5]
    |psi|^2 = 0.996
==== e(  10) =    -5.62098 eV ==== 
     psi = 0.127*[#  12]+0.127*[#  16]+0.122*[#   5]+0.114*[#   6]+0.114*[#   7]
          +0.084*[#  13]+0.084*[#  14]+0.084*[#  17]+0.084*[#  18]+0.018*[#   8]
          +0.018*[#   9]+0.007*[#  10]+0.002*[#  11]+0.002*[#  15]
    |psi|^2 = 0.986
==== e(  11) =    -4.69756 eV ==== 
     psi = 0.172*[#   6]+0.172*[#   7]+0.106*[#  13]+0.106*[#  14]+0.106*[#  17]
          +0.106*[#  18]+0.070*[#   8]+0.070*[#   9]+0.054*[#   5]+0.007*[#  10]
          +0.004*[#  11]+0.004*[#  15]+0.003*[#  12]+0.003*[#  16]
    |psi|^2 = 0.983
==== e(  12) =    -4.17227 eV ==== 
     psi = 0.232*[#   5]+0.171*[#   6]+0.171*[#   7]+0.113*[#   8]+0.113*[#   9]
          +0.034*[#  13]+0.034*[#  14]+0.034*[#  17]+0.034*[#  18]+0.018*[#  12]
          +0.018*[#  16]+0.008*[#  10]+0.005*[#  11]+0.005*[#  15]
    |psi|^2 = 0.990
==== e(  13) =    -4.10478 eV ==== 
     psi = 0.204*[#   8]+0.204*[#   9]+0.100*[#  12]+0.100*[#  16]+0.080*[#  13]
          +0.080*[#  14]+0.080*[#  17]+0.080*[#  18]+0.017*[#   6]+0.017*[#   7]
          +0.010*[#   5]+0.010*[#  10]+0.002*[#  11]+0.002*[#  15]
    |psi|^2 = 0.986
==== e(  14) =    -3.67582 eV ==== 
     psi = 0.488*[#   5]+0.087*[#   8]+0.087*[#   9]+0.067*[#  12]+0.067*[#  16]
          +0.036*[#  13]+0.036*[#  14]+0.036*[#  17]+0.036*[#  18]+0.023*[#   6]
          +0.023*[#   7]+0.003*[#  10]
    |psi|^2 = 0.992
==== e(  15) =    -3.51703 eV ==== 
     psi = 0.178*[#   8]+0.178*[#   9]+0.105*[#  13]+0.105*[#  14]+0.105*[#  17]
          +0.105*[#  18]+0.052*[#  12]+0.052*[#  16]+0.045*[#   6]+0.045*[#   7]
          +0.015*[#   5]
    |psi|^2 = 0.986
==== e(  16) =    -2.85239 eV ==== 
     psi = 0.261*[#  12]+0.261*[#  16]+0.072*[#   8]+0.072*[#   9]+0.059*[#   6]
          +0.059*[#   7]+0.040*[#  13]+0.040*[#  14]+0.040*[#  17]+0.040*[#  18]
          +0.039*[#   5]+0.005*[#  11]+0.005*[#  15]
    |psi|^2 = 0.994
==== e(  17) =    -2.32590 eV ==== 
     psi = 0.184*[#  13]+0.184*[#  14]+0.184*[#  17]+0.184*[#  18]+0.098*[#   6]
          +0.098*[#   7]+0.019*[#   8]+0.019*[#   9]+0.012*[#  12]+0.012*[#  16]
          
    |psi|^2 = 0.994
==== e(  18) =     1.85539 eV ==== 
     psi = 0.353*[#  10]+0.035*[#  13]+0.035*[#  14]+0.035*[#  17]+0.035*[#  18]
          +0.022*[#  12]+0.022*[#  16]+0.015*[#  11]+0.015*[#  15]+0.002*[#   8]
          +0.002*[#   9]+0.001*[#   1]
    |psi|^2 = 0.573
==== e(  19) =     3.10080 eV ==== 
     psi = 0.089*[#  10]+0.008*[#  12]+0.008*[#  16]+0.005*[#  11]+0.005*[#  15]
          +0.003*[#  13]+0.003*[#  14]+0.003*[#  17]+0.003*[#  18]+0.002*[#   8]
          +0.002*[#   9]
    |psi|^2 = 0.133
==== e(  20) =     3.38932 eV ==== 
     psi = 0.018*[#  10]+0.002*[#  12]+0.002*[#  16]+0.001*[#  13]+0.001*[#  14]
          +0.001*[#  17]+0.001*[#  18]
    |psi|^2 = 0.031

 k =   0.0625000000  0.3969283101  0.0000000000
==== e(   1) =  -106.00249 eV ==== 
     psi = 0.995*[#   1]
    |psi|^2 = 1.000
==== e(   2) =   -66.47605 eV ==== 
     psi = 0.999*[#   2]
    |psi|^2 = 1.000
==== e(   3) =   -66.42306 eV ==== 
     psi = 0.499*[#   3]+0.499*[#   4]
    |psi|^2 = 1.000
==== e(   4) =   -66.42279 eV ==== 
     psi = 0.500*[#   3]+0.500*[#   4]
    |psi|^2 = 1.000
==== e(   5) =   -15.02840 eV ==== 
     psi = 0.440*[#  11]+0.440*[#  15]+0.091*[#  10]+0.005*[#  12]+0.005*[#  16]
          +0.004*[#  13]+0.004*[#  14]+0.004*[#  17]+0.004*[#  18]
    |psi|^2 = 0.999
==== e(   6) =   -14.52071 eV ==== 
     psi = 0.486*[#  11]+0.486*[#  15]+0.006*[#   6]+0.006*[#   7]+0.003*[#   8]
          +0.003*[#   9]+0.003*[#  10]+0.001*[#  13]+0.001*[#  14]+0.001*[#  17]
          +0.001*[#  18]
    |psi|^2 = 0.999
==== e(   7) =    -6.97208 eV ==== 
     psi = 0.173*[#  10]+0.143*[#  13]+0.143*[#  14]+0.143*[#  17]+0.143*[#  18]
          +0.062*[#  12]+0.062*[#  16]+0.028*[#  11]+0.028*[#  15]+0.019*[#   8]
          +0.019*[#   9]+0.013*[#   6]+0.013*[#   7]+0.002*[#   1]
    |psi|^2 = 0.991
==== e(   8) =    -6.45720 eV ==== 
     psi = 0.143*[#  13]+0.143*[#  14]+0.143*[#  17]+0.143*[#  18]+0.099*[#  12]
          +0.099*[#  16]+0.054*[#   8]+0.054*[#   9]+0.041*[#   6]+0.041*[#   7]
          +0.011*[#  10]+0.006*[#  11]+0.006*[#  15]+0.003*[#   5]
    |psi|^2 = 0.988
==== e(   9) =    -5.78491 eV ==== 
     psi = 0.255*[#   6]+0.255*[#   7]+0.100*[#   8]+0.100*[#   9]+0.062*[#  13]
          +0.062*[#  14]+0.062*[#  17]+0.062*[#  18]+0.015*[#  12]+0.015*[#  16]
          +0.003*[#   5]+0.002*[#  10]
    |psi|^2 = 0.996
==== e(  10) =    -5.65778 eV ==== 
     psi = 0.235*[#  12]+0.235*[#  16]+0.115*[#   5]+0.097*[#   6]+0.097*[#   7]
          +0.038*[#   8]+0.038*[#   9]+0.031*[#  13]+0.031*[#  14]+0.031*[#  17]
          +0.031*[#  18]+0.004*[#  11]+0.004*[#  15]
    |psi|^2 = 0.990
==== e(  11) =    -4.75749 eV ==== 
     psi = 0.137*[#   6]+0.137*[#   7]+0.127*[#  13]+0.127*[#  14]+0.127*[#  17]
          +0.127*[#  18]+0.074*[#   5]+0.042*[#   8]+0.042*[#   9]+0.014*[#  12]
          +0.014*[#  16]+0.007*[#  10]+0.004*[#  11]+0.004*[#  15]
    |psi|^2 = 0.981
==== e(  12) =    -4.46857 eV ==== 
     psi = 0.125*[#  12]+0.125*[#  16]+0.124*[#   8]+0.124*[#   9]+0.101*[#  13]
          +0.101*[#  14]+0.101*[#  17]+0.101*[#  18]+0.028*[#   5]+0.023*[#   6]
          +0.023*[#   7]+0.005*[#  10]+0.003*[#  11]+0.003*[#  15]
    |psi|^2 = 0.988
==== e(  13) =    -4.15971 eV ==== 
     psi = 0.204*[#   5]+0.187*[#   8]+0.187*[#   9]+0.158*[#   6]+0.158*[#   7]
          +0.019*[#  12]+0.019*[#  16]+0.013*[#  10]+0.010*[#  13]+0.010*[#  14]
          +0.010*[#  17]+0.010*[#  18]+0.002*[#  11]+0.002*[#  15]
    |psi|^2 = 0.989
==== e(  14) =    -3.81928 eV ==== 
     psi = 0.376*[#   5]+0.158*[#   8]+0.158*[#   9]+0.049*[#  13]+0.049*[#  14]
          +0.049*[#  17]+0.049*[#  18]+0.030*[#  12]+0.030*[#  16]+0.019*[#   6]
          +0.019*[#   7]+0.004*[#  10]
    |psi|^2 = 0.990
==== e(  15) =    -3.67570 eV ==== 
     psi = 0.182*[#   8]+0.182*[#   9]+0.145*[#   5]+0.071*[#   6]+0.071*[#   7]
          +0.058*[#  13]+0.058*[#  14]+0.058*[#  17]+0.058*[#  18]+0.054*[#  12]
          +0.054*[#  16]+0.001*[#  10]
    |psi|^2 = 0.991
==== e(  16) =    -2.72482 eV ==== 
     psi = 0.275*[#  12]+0.275*[#  16]+0.071*[#   8]+0.071*[#   9]+0.059*[#   6]
          +0.059*[#   7]+0.046*[#   5]+0.032*[#  13]+0.032*[#  14]+0.032*[#  17]
          +0.032*[#  18]+0.004*[#  11]+0.004*[#  15]
    |psi|^2 = 0.994
==== e(  17) =    -2.34267 eV ==== 
     psi = 0.173*[#  13]+0.173*[#  14]+0.173*[#  17]+0.173*[#  18]+0.114*[#   6]
          +0.114*[#   7]+0.023*[#  12]+0.023*[#  16]+0.012*[#   8]+0.012*[#   9]
          
    |psi|^2 = 0.995
==== e(  18) =     1.44251 eV ==== 
     psi = 0.433*[#  10]+0.041*[#  13]+0.041*[#  14]+0.041*[#  17]+0.041*[#  18]
          +0.019*[#  12]+0.019*[#  16]+0.012*[#  11]+0.012*[#  15]+0.003*[#   8]
          +0.003*[#   9]+0.002*[#   1]
    |psi|^2 = 0.669
==== e(  19) =     3.18313 eV ==== 
     psi = 0.062*[#  10]+0.006*[#  12]+0.006*[#  16]+0.003*[#  11]+0.003*[#  15]
          +0.002*[#  13]+0.002*[#  14]+0.002*[#  17]+0.002*[#  18]+0.002*[#   8]
          +0.002*[#   9]+0.001*[#   6]+0.001*[#   7]
    |psi|^2 = 0.096
==== e(  20) =     3.61095 eV ==== 
     psi = 0.019*[#  10]+0.002*[#  13]+0.002*[#  14]+0.002*[#  17]+0.002*[#  18]
          +0.002*[#  12]+0.002*[#  16]
    |psi|^2 = 0.036

 k =   0.0625000000  0.4690970937  0.0000000000
==== e(   1) =  -106.00249 eV ==== 
     psi = 0.995*[#   1]
    |psi|^2 = 1.000
==== e(   2) =   -66.47604 eV ==== 
     psi = 0.999*[#   2]
    |psi|^2 = 1.000
==== e(   3) =   -66.42312 eV ==== 
     psi = 0.499*[#   3]+0.499*[#   4]
    |psi|^2 = 1.000
==== e(   4) =   -66.42281 eV ==== 
     psi = 0.500*[#   3]+0.500*[#   4]
    |psi|^2 = 1.000
==== e(   5) =   -14.83888 eV ==== 
     psi = 0.464*[#  11]+0.464*[#  15]+0.046*[#  10]+0.004*[#  12]+0.004*[#  16]
          +0.003*[#  13]+0.003*[#  14]+0.003*[#  17]+0.003*[#  18]
    |psi|^2 = 0.998
==== e(   6) =   -14.48880 eV ==== 
     psi = 0.482*[#  11]+0.482*[#  15]+0.010*[#  10]+0.007*[#   6]+0.007*[#   7]
          +0.004*[#   8]+0.004*[#   9]
    |psi|^2 = 0.999
==== e(   7) =    -7.33019 eV ==== 
     psi = 0.191*[#  10]+0.160*[#  13]+0.160*[#  14]+0.160*[#  17]+0.160*[#  18]
          +0.034*[#  12]+0.034*[#  16]+0.017*[#   6]+0.017*[#   7]+0.015*[#  11]
          +0.015*[#  15]+0.012*[#   8]+0.012*[#   9]+0.002*[#   1]+0.001*[#   5]
          
    |psi|^2 = 0.993
==== e(   8) =    -6.54205 eV ==== 
     psi = 0.174*[#  13]+0.174*[#  14]+0.174*[#  17]+0.174*[#  18]+0.091*[#  12]
          +0.091*[#  16]+0.023*[#   8]+0.023*[#   9]+0.022*[#   6]+0.022*[#   7]
          +0.005*[#  11]+0.005*[#  15]+0.005*[#  10]
    |psi|^2 = 0.986
==== e(   9) =    -5.77765 eV ==== 
     psi = 0.277*[#   6]+0.277*[#   7]+0.084*[#   8]+0.084*[#   9]+0.065*[#  13]
          +0.065*[#  14]+0.065*[#  17]+0.065*[#  18]+0.005*[#  12]+0.005*[#  16]
          +0.001*[#  10]
    |psi|^2 = 0.996
==== e(  10) =    -5.58939 eV ==== 
     psi = 0.224*[#  12]+0.224*[#  16]+0.109*[#   6]+0.109*[#   7]+0.099*[#   8]
          +0.099*[#   9]+0.073*[#   5]+0.010*[#  13]+0.010*[#  14]+0.010*[#  17]
          +0.010*[#  18]+0.007*[#  11]+0.007*[#  15]
    |psi|^2 = 0.993
==== e(  11) =    -4.78029 eV ==== 
     psi = 0.143*[#  13]+0.143*[#  14]+0.143*[#  17]+0.143*[#  18]+0.105*[#   6]
          +0.105*[#   7]+0.085*[#   5]+0.031*[#  12]+0.031*[#  16]+0.016*[#   8]
          +0.016*[#   9]+0.009*[#  10]+0.003*[#  11]+0.003*[#  15]
    |psi|^2 = 0.978
==== e(  12) =    -4.65865 eV ==== 
     psi = 0.203*[#  12]+0.203*[#  16]+0.088*[#  13]+0.088*[#  14]+0.088*[#  17]
          +0.088*[#  18]+0.084*[#   8]+0.084*[#   9]+0.021*[#   5]+0.011*[#   6]
          +0.011*[#   7]+0.011*[#  10]+0.002*[#  11]+0.002*[#  15]
    |psi|^2 = 0.986
==== e(  13) =    -4.16058 eV ==== 
     psi = 0.294*[#   5]+0.137*[#   6]+0.137*[#   7]+0.133*[#   8]+0.133*[#   9]
          +0.027*[#  12]+0.027*[#  16]+0.023*[#  13]+0.023*[#  14]+0.023*[#  17]
          +0.023*[#  18]+0.006*[#  10]+0.002*[#  11]+0.002*[#  15]
    |psi|^2 = 0.987
==== e(  14) =    -3.97473 eV ==== 
     psi = 0.258*[#   8]+0.258*[#   9]+0.254*[#   5]+0.035*[#  13]+0.035*[#  14]
          +0.035*[#  17]+0.035*[#  18]+0.033*[#   6]+0.033*[#   7]+0.006*[#  10]
          +0.006*[#  12]+0.006*[#  16]
    |psi|^2 = 0.993
==== e(  15) =    -3.79972 eV ==== 
     psi = 0.209*[#   5]+0.198*[#   8]+0.198*[#   9]+0.086*[#   6]+0.086*[#   7]
          +0.044*[#  12]+0.044*[#  16]+0.030*[#  13]+0.030*[#  14]+0.030*[#  17]
          +0.030*[#  18]+0.008*[#  10]
    |psi|^2 = 0.993
==== e(  16) =    -2.61721 eV ==== 
     psi = 0.267*[#  12]+0.267*[#  16]+0.069*[#   8]+0.069*[#   9]+0.064*[#   6]
          +0.064*[#   7]+0.054*[#   5]+0.033*[#  13]+0.033*[#  14]+0.033*[#  17]
          +0.033*[#  18]+0.003*[#  10]+0.003*[#  11]+0.003*[#  15]
    |psi|^2 = 0.995
==== e(  17) =    -2.35880 eV ==== 
     psi = 0.167*[#  13]+0.167*[#  14]+0.167*[#  17]+0.167*[#  18]+0.125*[#   6]
          +0.125*[#   7]+0.028*[#  12]+0.028*[#  16]+0.010*[#   8]+0.010*[#   9]
          +0.001*[#   5]
    |psi|^2 = 0.995
==== e(  18) =     1.15272 eV ==== 
     psi = 0.511*[#  10]+0.046*[#  13]+0.046*[#  14]+0.046*[#  17]+0.046*[#  18]
          +0.018*[#  12]+0.018*[#  16]+0.010*[#  11]+0.010*[#  15]+0.005*[#   8]
          +0.005*[#   9]+0.002*[#   1]
    |psi|^2 = 0.761
==== e(  19) =     3.20057 eV ==== 
     psi = 0.032*[#  10]+0.006*[#  12]+0.006*[#  16]+0.002*[#  13]+0.002*[#  14]
          +0.002*[#  17]+0.002*[#  18]+0.001*[#  11]+0.001*[#  15]+0.001*[#   8]
          +0.001*[#   9]
    |psi|^2 = 0.056
==== e(  20) =     3.59860 eV ==== 
     psi = 0.002*[#  13]+0.002*[#  14]+0.002*[#  17]+0.002*[#  18]+0.001*[#   5]
          +0.001*[#   8]+0.001*[#   9]
    |psi|^2 = 0.014

 k =   0.0625000000  0.5412658774  0.0000000000
==== e(   1) =  -106.00249 eV ==== 
     psi = 0.995*[#   1]+0.001*[#  13]+0.001*[#  14]+0.001*[#  17]+0.001*[#  18]
          
    |psi|^2 = 1.000
==== e(   2) =   -66.47603 eV ==== 
     psi = 0.999*[#   2]
    |psi|^2 = 1.000
==== e(   3) =   -66.42316 eV ==== 
     psi = 0.499*[#   3]+0.499*[#   4]
    |psi|^2 = 1.000
==== e(   4) =   -66.42282 eV ==== 
     psi = 0.500*[#   3]+0.500*[#   4]
    |psi|^2 = 1.000
==== e(   5) =   -14.70689 eV ==== 
     psi = 0.487*[#  11]+0.487*[#  15]+0.008*[#  10]+0.004*[#  12]+0.004*[#  16]
          +0.002*[#  13]+0.002*[#  14]+0.002*[#  17]+0.002*[#  18]
    |psi|^2 = 0.998
==== e(   6) =   -14.49544 eV ==== 
     psi = 0.473*[#  11]+0.473*[#  15]+0.025*[#  10]+0.008*[#   6]+0.008*[#   7]
          +0.005*[#   8]+0.005*[#   9]
    |psi|^2 = 0.999
==== e(   7) =    -7.53497 eV ==== 
     psi = 0.203*[#  10]+0.166*[#  13]+0.166*[#  14]+0.166*[#  17]+0.166*[#  18]
          +0.027*[#  12]+0.027*[#  16]+0.019*[#   6]+0.019*[#   7]+0.009*[#   8]
          +0.009*[#   9]+0.007*[#  11]+0.007*[#  15]+0.002*[#   1]+0.002*[#   5]
          
    |psi|^2 = 0.994
==== e(   8) =    -6.58961 eV ==== 
     psi = 0.194*[#  13]+0.194*[#  14]+0.194*[#  17]+0.194*[#  18]+0.087*[#  12]
          +0.087*[#  16]+0.008*[#   6]+0.008*[#   7]+0.005*[#  11]+0.005*[#  15]
          +0.003*[#   8]+0.003*[#   9]
    |psi|^2 = 0.985
==== e(   9) =    -5.77228 eV ==== 
     psi = 0.286*[#   6]+0.286*[#   7]+0.075*[#   8]+0.075*[#   9]+0.065*[#  13]
          +0.065*[#  14]+0.065*[#  17]+0.065*[#  18]+0.007*[#  12]+0.007*[#  16]
          
    |psi|^2 = 0.997
==== e(  10) =    -5.57466 eV ==== 
     psi = 0.171*[#  12]+0.171*[#  16]+0.156*[#   8]+0.156*[#   9]+0.131*[#   6]
          +0.131*[#   7]+0.043*[#   5]+0.008*[#  11]+0.008*[#  15]+0.005*[#  13]
          +0.005*[#  14]+0.005*[#  17]+0.005*[#  18]
    |psi|^2 = 0.996
==== e(  11) =    -4.78431 eV ==== 
     psi = 0.175*[#  13]+0.175*[#  14]+0.175*[#  17]+0.175*[#  18]+0.081*[#   6]
          +0.081*[#   7]+0.057*[#   5]+0.018*[#  10]+0.011*[#   8]+0.011*[#   9]
          +0.005*[#  12]+0.005*[#  16]+0.002*[#  11]+0.002*[#  15]
    |psi|^2 = 0.975
==== e(  12) =    -4.67963 eV ==== 
     psi = 0.345*[#  12]+0.345*[#  16]+0.057*[#  13]+0.057*[#  14]+0.057*[#  17]
          +0.057*[#  18]+0.021*[#   8]+0.021*[#   9]+0.011*[#   5]+0.003*[#   6]
          +0.003*[#   7]+0.002*[#  10]+0.002*[#  11]+0.002*[#  15]
    |psi|^2 = 0.983
==== e(  13) =    -4.18363 eV ==== 
     psi = 0.578*[#   5]+0.089*[#   6]+0.089*[#   7]+0.044*[#  13]+0.044*[#  14]
          +0.044*[#  17]+0.044*[#  18]+0.014*[#   8]+0.014*[#   9]+0.011*[#  12]
          +0.011*[#  16]+0.001*[#  11]+0.001*[#  15]
    |psi|^2 = 0.986
==== e(  14) =    -4.04855 eV ==== 
     psi = 0.395*[#   8]+0.395*[#   9]+0.064*[#   6]+0.064*[#   7]+0.037*[#   5]
          +0.009*[#  12]+0.009*[#  16]+0.006*[#  13]+0.006*[#  14]+0.006*[#  17]
          +0.006*[#  18]+0.003*[#  10]
    |psi|^2 = 0.997
==== e(  15) =    -3.89421 eV ==== 
     psi = 0.223*[#   8]+0.223*[#   9]+0.204*[#   5]+0.108*[#   6]+0.108*[#   7]
          +0.020*[#  10]+0.020*[#  13]+0.020*[#  14]+0.020*[#  17]+0.020*[#  18]
          +0.013*[#  12]+0.013*[#  16]
    |psi|^2 = 0.994
==== e(  16) =    -2.55217 eV ==== 
     psi = 0.276*[#  12]+0.276*[#  16]+0.071*[#   8]+0.071*[#   9]+0.062*[#   6]
          +0.062*[#   7]+0.062*[#   5]+0.026*[#  13]+0.026*[#  14]+0.026*[#  17]
          +0.026*[#  18]+0.006*[#  10]+0.003*[#  11]+0.003*[#  15]
    |psi|^2 = 0.996
==== e(  17) =    -2.37871 eV ==== 
     psi = 0.172*[#  13]+0.172*[#  14]+0.172*[#  17]+0.172*[#  18]+0.134*[#   6]
          +0.134*[#   7]+0.012*[#  12]+0.012*[#  16]+0.005*[#   8]+0.005*[#   9]
          
    |psi|^2 = 0.994
==== e(  18) =     1.00734 eV ==== 
     psi = 0.559*[#  10]+0.048*[#  13]+0.048*[#  14]+0.048*[#  17]+0.048*[#  18]
          +0.018*[#  12]+0.018*[#  16]+0.008*[#  11]+0.008*[#  15]+0.006*[#   8]
          +0.006*[#   9]+0.002*[#   1]
    |psi|^2 = 0.816
==== e(  19) =     3.17956 eV ==== 
     psi = 0.005*[#  12]+0.005*[#  16]+0.004*[#  10]+0.001*[#  13]+0.001*[#  14]
          +0.001*[#  17]+0.001*[#  18]
    |psi|^2 = 0.020
==== e(  20) =     3.69255 eV ==== 
     psi = 0.003*[#   5]+0.002*[#   8]+0.002*[#   9]+0.002*[#   6]+0.002*[#   7]
          +0.001*[#  12]+0.001*[#  16]
    |psi|^2 = 0.015

 k =   0.1250000000  0.2165063509  0.0000000000
==== e(   1) =  -106.00250 eV ==== 
     psi = 0.995*[#   1]+0.001*[#  12]+0.001*[#  16]
    |psi|^2 = 1.000
==== e(   2) =   -66.47609 eV ==== 
     psi = 0.999*[#   2]
    |psi|^2 = 1.000
==== e(   3) =   -66.42287 eV ==== 
     psi = 0.500*[#   3]+0.500*[#   4]
    |psi|^2 = 1.000
==== e(   4) =   -66.42274 eV ==== 
     psi = 0.500*[#   3]+0.500*[#   4]
    |psi|^2 = 1.000
==== e(   5) =   -15.45483 eV ==== 
     psi = 0.394*[#  11]+0.394*[#  15]+0.185*[#  10]+0.005*[#  12]+0.005*[#  16]
          +0.003*[#  13]+0.003*[#  14]+0.003*[#  17]+0.003*[#  18]
    |psi|^2 = 0.999
==== e(   6) =   -14.67917 eV ==== 
     psi = 0.488*[#  11]+0.488*[#  15]+0.003*[#   6]+0.003*[#   7]+0.002*[#  13]
          +0.002*[#  14]+0.002*[#  17]+0.002*[#  18]+0.002*[#   8]+0.002*[#   9]
          +0.001*[#  12]+0.001*[#  16]
    |psi|^2 = 0.998
==== e(   7) =    -6.56619 eV ==== 
     psi = 0.339*[#  12]+0.339*[#  16]+0.109*[#  10]+0.067*[#   5]+0.041*[#  11]
          +0.041*[#  15]+0.013*[#  13]+0.013*[#  14]+0.013*[#  17]+0.013*[#  18]
          +0.002*[#   6]+0.002*[#   7]+0.002*[#   1]
    |psi|^2 = 0.995
==== e(   8) =    -6.16369 eV ==== 
     psi = 0.158*[#   8]+0.158*[#   9]+0.096*[#  13]+0.096*[#  14]+0.096*[#  17]
          +0.096*[#  18]+0.092*[#   6]+0.092*[#   7]+0.054*[#  12]+0.054*[#  16]
          
    |psi|^2 = 0.991
==== e(   9) =    -5.82405 eV ==== 
     psi = 0.225*[#   6]+0.225*[#   7]+0.139*[#   8]+0.139*[#   9]+0.065*[#  13]
          +0.065*[#  14]+0.065*[#  17]+0.065*[#  18]+0.003*[#  12]+0.003*[#  16]
          +0.003*[#   5]
    |psi|^2 = 0.995
==== e(  10) =    -5.05422 eV ==== 
     psi = 0.172*[#   5]+0.142*[#  13]+0.142*[#  14]+0.142*[#  17]+0.142*[#  18]
          +0.042*[#   8]+0.042*[#   9]+0.041*[#  10]+0.024*[#  12]+0.024*[#  16]
          +0.022*[#   6]+0.022*[#   7]+0.012*[#  11]+0.012*[#  15]
    |psi|^2 = 0.981
==== e(  11) =    -4.79547 eV ==== 
     psi = 0.304*[#   6]+0.304*[#   7]+0.073*[#  13]+0.073*[#  14]+0.073*[#  17]
          +0.073*[#  18]+0.036*[#   8]+0.036*[#   9]+0.003*[#  11]+0.003*[#  15]
          +0.002*[#  12]+0.002*[#  16]
    |psi|^2 = 0.984
==== e(  12) =    -4.10703 eV ==== 
     psi = 0.249*[#   5]+0.186*[#   8]+0.186*[#   9]+0.158*[#   6]+0.158*[#   7]
          +0.017*[#  10]+0.007*[#  12]+0.007*[#  16]+0.004*[#  13]+0.004*[#  14]
          +0.004*[#  17]+0.004*[#  18]+0.004*[#  11]+0.004*[#  15]
    |psi|^2 = 0.992
==== e(  13) =    -3.65595 eV ==== 
     psi = 0.161*[#  12]+0.161*[#  16]+0.109*[#  13]+0.109*[#  14]+0.109*[#  17]
          +0.109*[#  18]+0.108*[#   8]+0.108*[#   9]+0.003*[#   6]+0.003*[#   7]
          +0.002*[#  11]+0.002*[#  15]
    |psi|^2 = 0.982
==== e(  14) =    -3.56379 eV ==== 
     psi = 0.495*[#   5]+0.065*[#   8]+0.065*[#   9]+0.054*[#  12]+0.054*[#  16]
          +0.052*[#  13]+0.052*[#  14]+0.052*[#  17]+0.052*[#  18]+0.022*[#   6]
          +0.022*[#   7]+0.003*[#  10]
    |psi|^2 = 0.992
==== e(  15) =    -3.39155 eV ==== 
     psi = 0.214*[#  12]+0.214*[#  16]+0.166*[#   8]+0.166*[#   9]+0.051*[#  13]
          +0.051*[#  14]+0.051*[#  17]+0.051*[#  18]+0.012*[#   6]+0.012*[#   7]
          +0.002*[#  11]+0.002*[#  15]
    |psi|^2 = 0.990
==== e(  16) =    -2.65855 eV ==== 
     psi = 0.159*[#  13]+0.159*[#  14]+0.159*[#  17]+0.159*[#  18]+0.081*[#   6]
          +0.081*[#   7]+0.066*[#  12]+0.066*[#  16]+0.026*[#   8]+0.026*[#   9]
          +0.005*[#  11]+0.005*[#  15]
    |psi|^2 = 0.992
==== e(  17) =    -2.51677 eV ==== 
     psi = 0.175*[#  13]+0.175*[#  14]+0.175*[#  17]+0.175*[#  18]+0.067*[#   6]
          +0.067*[#   7]+0.063*[#   8]+0.063*[#   9]+0.007*[#  12]+0.007*[#  16]
          +0.007*[#   5]+0.001*[#  11]+0.001*[#  15]
    |psi|^2 = 0.985
==== e(  18) =     2.65659 eV ==== 
     psi = 0.449*[#  10]+0.040*[#  12]+0.040*[#  16]+0.036*[#  13]+0.036*[#  14]
          +0.036*[#  17]+0.036*[#  18]+0.031*[#  11]+0.031*[#  15]+0.001*[#   8]
          +0.001*[#   9]+0.001*[#   1]
    |psi|^2 = 0.738
==== e(  19) =     2.90890 eV ==== 
     psi = 0.003*[#  10]+0.002*[#  13]+0.002*[#  14]+0.002*[#  17]+0.002*[#  18]
          +0.001*[#   5]
    |psi|^2 = 0.014
==== e(  20) =     3.04210 eV ==== 
 
    |psi|^2 = 0.006

 k =   0.1250000000  0.2886751346  0.0000000000
==== e(   1) =  -106.00250 eV ==== 
     psi = 0.995*[#   1]
    |psi|^2 = 1.000
==== e(   2) =   -66.47607 eV ==== 
     psi = 0.999*[#   2]
    |psi|^2 = 1.000
==== e(   3) =   -66.42295 eV ==== 
     psi = 0.499*[#   3]+0.499*[#   4]
    |psi|^2 = 1.000
==== e(   4) =   -66.42277 eV ==== 
     psi = 0.500*[#   3]+0.500*[#   4]
    |psi|^2 = 1.000
==== e(   5) =   -15.28010 eV ==== 
     psi = 0.412*[#  11]+0.412*[#  15]+0.147*[#  10]+0.005*[#  12]+0.005*[#  16]
          +0.004*[#  13]+0.004*[#  14]+0.004*[#  17]+0.004*[#  18]
    |psi|^2 = 0.999
==== e(   6) =   -14.60272 eV ==== 
     psi = 0.487*[#  11]+0.487*[#  15]+0.005*[#   6]+0.005*[#   7]+0.002*[#   8]
          +0.002*[#   9]+0.002*[#  13]+0.002*[#  14]+0.002*[#  17]+0.002*[#  18]
          
    |psi|^2 = 0.998
==== e(   7) =    -6.53863 eV ==== 
     psi = 0.249*[#  12]+0.249*[#  16]+0.147*[#  10]+0.050*[#  13]+0.050*[#  14]
          +0.050*[#  17]+0.050*[#  18]+0.045*[#  11]+0.045*[#  15]+0.027*[#   5]
          +0.013*[#   6]+0.013*[#   7]+0.003*[#   8]+0.003*[#   9]+0.002*[#   1]
          
    |psi|^2 = 0.994
==== e(   8) =    -6.29177 eV ==== 
     psi = 0.134*[#   8]+0.134*[#   9]+0.118*[#  13]+0.118*[#  14]+0.118*[#  17]
          +0.118*[#  18]+0.068*[#  12]+0.068*[#  16]+0.055*[#   6]+0.055*[#   7]
          
    |psi|^2 = 0.989
==== e(   9) =    -5.84735 eV ==== 
     psi = 0.223*[#   6]+0.223*[#   7]+0.112*[#   8]+0.112*[#   9]+0.063*[#  13]
          +0.063*[#  14]+0.063*[#  17]+0.063*[#  18]+0.029*[#  12]+0.029*[#  16]
          +0.016*[#   5]
    |psi|^2 = 0.996
==== e(  10) =    -5.42946 eV ==== 
     psi = 0.146*[#   5]+0.122*[#  13]+0.122*[#  14]+0.122*[#  17]+0.122*[#  18]
          +0.083*[#  12]+0.083*[#  16]+0.052*[#   6]+0.052*[#   7]+0.024*[#  10]
          +0.022*[#   8]+0.022*[#   9]+0.004*[#  11]+0.004*[#  15]
    |psi|^2 = 0.981
==== e(  11) =    -4.98339 eV ==== 
     psi = 0.251*[#   6]+0.251*[#   7]+0.099*[#  13]+0.099*[#  14]+0.099*[#  17]
          +0.099*[#  18]+0.027*[#   5]+0.018*[#   8]+0.018*[#   9]+0.005*[#  10]
          +0.005*[#  11]+0.005*[#  15]+0.004*[#  12]+0.004*[#  16]
    |psi|^2 = 0.983
==== e(  12) =    -4.09897 eV ==== 
     psi = 0.226*[#   8]+0.226*[#   9]+0.182*[#   5]+0.157*[#   6]+0.157*[#   7]
          +0.013*[#  10]+0.008*[#  12]+0.008*[#  16]+0.002*[#  11]+0.002*[#  15]
          +0.002*[#  13]+0.002*[#  14]+0.002*[#  17]+0.002*[#  18]
    |psi|^2 = 0.992
==== e(  13) =    -3.96924 eV ==== 
     psi = 0.171*[#   8]+0.171*[#   9]+0.104*[#  12]+0.104*[#  16]+0.103*[#  13]
          +0.103*[#  14]+0.103*[#  17]+0.103*[#  18]+0.005*[#   6]+0.005*[#   7]
          +0.003*[#   5]+0.003*[#  11]+0.003*[#  15]
    |psi|^2 = 0.985
==== e(  14) =    -3.67407 eV ==== 
     psi = 0.569*[#   5]+0.075*[#   8]+0.075*[#   9]+0.052*[#  12]+0.052*[#  16]
          +0.035*[#  13]+0.035*[#  14]+0.035*[#  17]+0.035*[#  18]+0.012*[#   6]
          +0.012*[#   7]+0.003*[#  10]
    |psi|^2 = 0.991
==== e(  15) =    -3.41823 eV ==== 
     psi = 0.156*[#  12]+0.156*[#  16]+0.151*[#   8]+0.151*[#   9]+0.073*[#  13]
          +0.073*[#  14]+0.073*[#  17]+0.073*[#  18]+0.040*[#   6]+0.040*[#   7]
          +0.001*[#   5]
    |psi|^2 = 0.987
==== e(  16) =    -2.80250 eV ==== 
     psi = 0.117*[#  13]+0.117*[#  14]+0.117*[#  17]+0.117*[#  18]+0.110*[#  12]
          +0.110*[#  16]+0.085*[#   6]+0.085*[#   7]+0.050*[#   8]+0.050*[#   9]
          +0.020*[#   5]+0.003*[#  11]+0.003*[#  15]
    |psi|^2 = 0.989
==== e(  17) =    -2.55878 eV ==== 
     psi = 0.147*[#  13]+0.147*[#  14]+0.147*[#  17]+0.147*[#  18]+0.096*[#   6]
          +0.096*[#   7]+0.076*[#  12]+0.076*[#  16]+0.026*[#   8]+0.026*[#   9]
          +0.003*[#  11]+0.003*[#  15]
    |psi|^2 = 0.992
==== e(  18) =     2.36744 eV ==== 
     psi = 0.382*[#  10]+0.040*[#  13]+0.040*[#  14]+0.040*[#  17]+0.040*[#  18]
          +0.026*[#  12]+0.026*[#  16]+0.018*[#  11]+0.018*[#  15]+0.002*[#   8]
          +0.002*[#   9]+0.001*[#   1]
    |psi|^2 = 0.636
==== e(  19) =     3.14471 eV ==== 
     psi = 0.047*[#  10]+0.004*[#  12]+0.004*[#  16]+0.004*[#  13]+0.004*[#  14]
          +0.004*[#  17]+0.004*[#  18]+0.003*[#  11]+0.003*[#  15]+0.001*[#   8]
          +0.001*[#   9]
    |psi|^2 = 0.077
==== e(  20) =     3.26945 eV ==== 
     psi = 0.038*[#  10]+0.004*[#  12]+0.004*[#  16]+0.002*[#  11]+0.002*[#  15]
          +0.002*[#  13]+0.002*[#  14]+0.002*[#  17]+0.002*[#  18]
    |psi|^2 = 0.057

 k =   0.1250000000  0.3608439182  0.0000000000
==== e(   1) =  -106.00249 eV ==== 
     psi = 0.995*[#   1]
    |psi|^2 = 1.000
==== e(   2) =   -66.47605 eV ==== 
     psi = 0.999*[#   2]
    |psi|^2 = 1.000
==== e(   3) =   -66.42302 eV ==== 
     psi = 0.499*[#   3]+0.499*[#   4]
    |psi|^2 = 1.000
==== e(   4) =   -66.42280 eV ==== 
     psi = 0.500*[#   3]+0.500*[#   4]
    |psi|^2 = 1.000
==== e(   5) =   -15.08396 eV ==== 
     psi = 0.432*[#  11]+0.432*[#  15]+0.104*[#  10]+0.005*[#  12]+0.005*[#  13]
          +0.005*[#  14]+0.005*[#  16]+0.005*[#  17]+0.005*[#  18]
    |psi|^2 = 0.999
==== e(   6) =   -14.53172 eV ==== 
     psi = 0.487*[#  11]+0.487*[#  15]+0.006*[#   6]+0.006*[#   7]+0.003*[#   8]
          +0.003*[#   9]+0.001*[#  13]+0.001*[#  14]+0.001*[#  17]+0.001*[#  18]
          
    |psi|^2 = 0.999
==== e(   7) =    -6.75576 eV ==== 
     psi = 0.174*[#  10]+0.120*[#  13]+0.120*[#  14]+0.120*[#  17]+0.120*[#  18]
          +0.100*[#  12]+0.100*[#  16]+0.036*[#  11]+0.036*[#  15]+0.019*[#   6]
          +0.019*[#   7]+0.013*[#   8]+0.013*[#   9]+0.002*[#   1]
    |psi|^2 = 0.993
==== e(   8) =    -6.40585 eV ==== 
     psi = 0.138*[#  13]+0.138*[#  14]+0.138*[#  17]+0.138*[#  18]+0.088*[#  12]
          +0.088*[#  16]+0.086*[#   8]+0.086*[#   9]+0.037*[#   6]+0.037*[#   7]
          +0.006*[#  10]+0.003*[#  11]+0.003*[#  15]+0.002*[#   5]
    |psi|^2 = 0.987
==== e(   9) =    -5.82637 eV ==== 
     psi = 0.215*[#   6]+0.215*[#   7]+0.104*[#   8]+0.104*[#   9]+0.059*[#  13]
          +0.059*[#  14]+0.059*[#  17]+0.059*[#  18]+0.049*[#  12]+0.049*[#  16]
          +0.012*[#   5]+0.008*[#  10]+0.002*[#  11]+0.002*[#  15]
    |psi|^2 = 0.996
==== e(  10) =    -5.61406 eV ==== 
     psi = 0.185*[#  12]+0.185*[#  16]+0.124*[#   5]+0.095*[#   6]+0.095*[#   7]
          +0.065*[#  13]+0.065*[#  14]+0.065*[#  17]+0.065*[#  18]+0.019*[#   8]
          +0.019*[#   9]+0.003*[#  10]+0.002*[#  11]+0.002*[#  15]
    |psi|^2 = 0.985
==== e(  11) =    -5.08958 eV ==== 
     psi = 0.190*[#   6]+0.190*[#   7]+0.118*[#  13]+0.118*[#  14]+0.118*[#  17]
          +0.118*[#  18]+0.052*[#   5]+0.017*[#  12]+0.017*[#  16]+0.013*[#   8]
          +0.013*[#   9]+0.011*[#  10]+0.004*[#  11]+0.004*[#  15]
    |psi|^2 = 0.982
==== e(  12) =    -4.30753 eV ==== 
     psi = 0.152*[#   8]+0.152*[#   9]+0.108*[#  12]+0.108*[#  16]+0.105*[#  13]
          +0.105*[#  14]+0.105*[#  17]+0.105*[#  18]+0.014*[#   5]+0.010*[#   6]
          +0.010*[#   7]+0.003*[#  11]+0.003*[#  15]+0.002*[#  10]
    |psi|^2 = 0.986
==== e(  13) =    -4.08621 eV ==== 
     psi = 0.264*[#   8]+0.264*[#   9]+0.143*[#   6]+0.143*[#   7]+0.128*[#   5]
          +0.013*[#  12]+0.013*[#  16]+0.011*[#  10]+0.002*[#  13]+0.002*[#  14]
          +0.002*[#  17]+0.002*[#  18]+0.001*[#  11]+0.001*[#  15]
    |psi|^2 = 0.992
==== e(  14) =    -3.80972 eV ==== 
     psi = 0.587*[#   5]+0.089*[#   8]+0.089*[#   9]+0.036*[#  12]+0.036*[#  16]
          +0.035*[#  13]+0.035*[#  14]+0.035*[#  17]+0.035*[#  18]+0.005*[#  10]
          +0.004*[#   6]+0.004*[#   7]
    |psi|^2 = 0.991
==== e(  15) =    -3.54708 eV ==== 
     psi = 0.176*[#   8]+0.176*[#   9]+0.081*[#   6]+0.081*[#   7]+0.078*[#  12]
          +0.078*[#  16]+0.071*[#  13]+0.071*[#  14]+0.071*[#  17]+0.071*[#  18]
          +0.036*[#   5]
    |psi|^2 = 0.989
[...]
          +0.004*[#   9]+0.003*[#   5]+0.003*[#   1]
    |psi|^2 = 0.815
==== e(  19) =     3.99428 eV ==== 
     psi = 0.009*[#  10]+0.004*[#  12]+0.004*[#  16]+0.003*[#  13]+0.003*[#  14]
          +0.003*[#  17]+0.003*[#  18]
    |psi|^2 = 0.031
==== e(  20) =     4.42066 eV ==== 
     psi = 0.004*[#  12]+0.004*[#  16]+0.002*[#  13]+0.002*[#  14]+0.002*[#  17]
          +0.002*[#  18]
    |psi|^2 = 0.018

 k =   0.2500000000  0.4330127019  0.0000000000
==== e(   1) =  -104.63178 eV ==== 
     psi = 0.995*[#   1]+0.001*[#  13]+0.001*[#  14]+0.001*[#  17]+0.001*[#  18]
          
    |psi|^2 = 1.000
==== e(   2) =   -64.96650 eV ==== 
     psi = 0.999*[#   2]
    |psi|^2 = 1.000
==== e(   3) =   -64.95602 eV ==== 
     psi = 0.499*[#   3]+0.499*[#   4]
    |psi|^2 = 1.000
==== e(   4) =   -64.95581 eV ==== 
     psi = 0.499*[#   3]+0.499*[#   4]
    |psi|^2 = 1.000
==== e(   5) =   -14.50862 eV ==== 
     psi = 0.465*[#  11]+0.465*[#  15]+0.039*[#  10]+0.004*[#  12]+0.004*[#  16]
          +0.004*[#  13]+0.004*[#  14]+0.004*[#  17]+0.004*[#  18]+0.001*[#   6]
          +0.001*[#   7]+0.001*[#   8]+0.001*[#   9]
    |psi|^2 = 0.998
==== e(   6) =   -14.18293 eV ==== 
     psi = 0.489*[#  11]+0.489*[#  15]+0.006*[#   6]+0.006*[#   7]+0.003*[#   8]
          +0.003*[#   9]
    |psi|^2 = 0.999
==== e(   7) =    -6.84379 eV ==== 
     psi = 0.242*[#  10]+0.153*[#  13]+0.153*[#  14]+0.153*[#  17]+0.153*[#  18]
          +0.036*[#  12]+0.036*[#  16]+0.020*[#  11]+0.020*[#  15]+0.010*[#   6]
          +0.010*[#   7]+0.002*[#   5]+0.002*[#   1]+0.001*[#   8]+0.001*[#   9]
          
    |psi|^2 = 0.995
==== e(   8) =    -6.22497 eV ==== 
     psi = 0.190*[#  13]+0.190*[#  14]+0.190*[#  17]+0.190*[#  18]+0.068*[#  12]
          +0.068*[#  16]+0.033*[#   8]+0.033*[#   9]+0.007*[#   6]+0.007*[#   7]
          
    |psi|^2 = 0.979
==== e(   9) =    -5.55799 eV ==== 
     psi = 0.150*[#  13]+0.150*[#  14]+0.150*[#  17]+0.150*[#  18]+0.132*[#  12]
          +0.132*[#  16]+0.030*[#   6]+0.030*[#   7]+0.026*[#   5]+0.022*[#  10]
          +0.001*[#  11]+0.001*[#  15]
    |psi|^2 = 0.975
==== e(  10) =    -4.79626 eV ==== 
     psi = 0.201*[#  13]+0.201*[#  14]+0.201*[#  17]+0.201*[#  18]+0.085*[#   6]
          +0.085*[#   7]
    |psi|^2 = 0.976
==== e(  11) =    -4.72464 eV ==== 
     psi = 0.233*[#  12]+0.233*[#  16]+0.081*[#   6]+0.081*[#   7]+0.058*[#  13]
          +0.058*[#  14]+0.058*[#  17]+0.058*[#  18]+0.052*[#   5]+0.035*[#   8]
          +0.035*[#   9]+0.008*[#  10]+0.002*[#  11]+0.002*[#  15]
    |psi|^2 = 0.995
==== e(  12) =    -4.11015 eV ==== 
     psi = 0.269*[#  12]+0.269*[#  16]+0.092*[#   8]+0.092*[#   9]+0.053*[#   6]
          +0.053*[#   7]+0.039*[#  13]+0.039*[#  14]+0.039*[#  17]+0.039*[#  18]
          +0.004*[#  11]+0.004*[#  15]
    |psi|^2 = 0.993
==== e(  13) =    -3.22314 eV ==== 
     psi = 0.705*[#   5]+0.053*[#   6]+0.053*[#   7]+0.049*[#   8]+0.049*[#   9]
          +0.033*[#  12]+0.033*[#  16]+0.003*[#  13]+0.003*[#  14]+0.003*[#  17]
          +0.003*[#  18]
    |psi|^2 = 0.987
==== e(  14) =    -3.17462 eV ==== 
     psi = 0.338*[#   8]+0.338*[#   9]+0.194*[#   5]+0.054*[#   6]+0.054*[#   7]
          +0.011*[#  10]+0.002*[#  13]+0.002*[#  14]+0.002*[#  17]+0.002*[#  18]
          
    |psi|^2 = 0.995
==== e(  15) =    -2.94845 eV ==== 
     psi = 0.271*[#   8]+0.271*[#   9]+0.137*[#   6]+0.137*[#   7]+0.035*[#  12]
          +0.035*[#  16]+0.026*[#  13]+0.026*[#  14]+0.026*[#  17]+0.026*[#  18]
          
    |psi|^2 = 0.989
==== e(  16) =    -1.68088 eV ==== 
     psi = 0.264*[#   6]+0.264*[#   7]+0.067*[#   8]+0.067*[#   9]+0.056*[#  13]
          +0.056*[#  14]+0.056*[#  17]+0.056*[#  18]+0.036*[#  12]+0.036*[#  16]
          +0.010*[#   5]+0.005*[#  10]+0.003*[#  11]+0.003*[#  15]
    |psi|^2 = 0.980
==== e(  17) =    -1.24400 eV ==== 
     psi = 0.208*[#   6]+0.208*[#   7]+0.121*[#  12]+0.121*[#  16]+0.095*[#   8]
          +0.095*[#   9]+0.033*[#  13]+0.033*[#  14]+0.033*[#  17]+0.033*[#  18]
          +0.006*[#  11]+0.006*[#  15]
    |psi|^2 = 0.991
==== e(  18) =     2.27316 eV ==== 
     psi = 0.503*[#  10]+0.062*[#  13]+0.062*[#  14]+0.062*[#  17]+0.062*[#  18]
          +0.012*[#  12]+0.012*[#  16]+0.005*[#  11]+0.005*[#  15]+0.003*[#   1]
          +0.003*[#   5]+0.002*[#   8]+0.002*[#   9]
    |psi|^2 = 0.798
==== e(  19) =     3.50905 eV ==== 
     psi = 0.002*[#  12]+0.002*[#  13]+0.002*[#  14]+0.002*[#  16]+0.002*[#  17]
          +0.002*[#  18]
    |psi|^2 = 0.016
==== e(  20) =     4.74724 eV ==== 
     psi = 0.059*[#  10]+0.005*[#  12]+0.005*[#  16]+0.003*[#  13]+0.003*[#  14]
          +0.003*[#  17]+0.003*[#  18]+0.001*[#  11]+0.001*[#  15]
    |psi|^2 = 0.082

 k =   0.2500000000  0.5051814855  0.0000000000
==== e(   1) =  -104.63177 eV ==== 
     psi = 0.995*[#   1]+0.001*[#  13]+0.001*[#  14]+0.001*[#  17]+0.001*[#  18]
          
    |psi|^2 = 1.000
==== e(   2) =   -64.96649 eV ==== 
     psi = 0.999*[#   2]
    |psi|^2 = 1.000
==== e(   3) =   -64.95602 eV ==== 
     psi = 0.499*[#   3]+0.499*[#   4]
    |psi|^2 = 1.000
==== e(   4) =   -64.95586 eV ==== 
     psi = 0.499*[#   3]+0.499*[#   4]
    |psi|^2 = 1.000
==== e(   5) =   -14.37131 eV ==== 
     psi = 0.480*[#  11]+0.480*[#  15]+0.014*[#  10]+0.003*[#  12]+0.003*[#  16]
          +0.003*[#  13]+0.003*[#  14]+0.003*[#  17]+0.003*[#  18]+0.002*[#   6]
          +0.002*[#   7]+0.002*[#   8]+0.002*[#   9]
    |psi|^2 = 0.998
==== e(   6) =   -14.18295 eV ==== 
     psi = 0.488*[#  11]+0.488*[#  15]+0.005*[#   6]+0.005*[#   7]+0.003*[#   8]
          +0.003*[#   9]+0.002*[#  10]
    |psi|^2 = 0.999
==== e(   7) =    -6.95904 eV ==== 
     psi = 0.258*[#  10]+0.164*[#  13]+0.164*[#  14]+0.164*[#  17]+0.164*[#  18]
          +0.019*[#  12]+0.019*[#  16]+0.008*[#  11]+0.008*[#  15]+0.008*[#   6]
          +0.008*[#   7]+0.004*[#   5]+0.002*[#   8]+0.002*[#   9]+0.002*[#   1]
          
    |psi|^2 = 0.995
==== e(   8) =    -6.21075 eV ==== 
     psi = 0.185*[#  13]+0.185*[#  14]+0.185*[#  17]+0.185*[#  18]+0.080*[#  12]
          +0.080*[#  16]+0.019*[#   6]+0.019*[#   7]+0.018*[#   8]+0.018*[#   9]
          +0.002*[#  10]+0.002*[#  11]+0.002*[#  15]
    |psi|^2 = 0.980
==== e(   9) =    -5.78935 eV ==== 
     psi = 0.167*[#  13]+0.167*[#  14]+0.167*[#  17]+0.167*[#  18]+0.094*[#  12]
          +0.094*[#  16]+0.033*[#   6]+0.033*[#   7]+0.027*[#  10]+0.010*[#   5]
          +0.007*[#   8]+0.007*[#   9]+0.001*[#  11]+0.001*[#  15]
    |psi|^2 = 0.978
==== e(  10) =    -4.97639 eV ==== 
     psi = 0.218*[#  13]+0.218*[#  14]+0.218*[#  17]+0.218*[#  18]+0.046*[#   6]
          +0.046*[#   7]+0.004*[#  12]+0.004*[#  16]
    |psi|^2 = 0.975
==== e(  11) =    -4.56635 eV ==== 
     psi = 0.279*[#  12]+0.279*[#  16]+0.075*[#   6]+0.075*[#   7]+0.048*[#   8]
          +0.048*[#   9]+0.038*[#  13]+0.038*[#  14]+0.038*[#  17]+0.038*[#  18]
          +0.031*[#   5]+0.003*[#  10]+0.003*[#  11]+0.003*[#  15]
    |psi|^2 = 0.994
==== e(  12) =    -4.25965 eV ==== 
     psi = 0.271*[#  12]+0.271*[#  16]+0.086*[#   8]+0.086*[#   9]+0.072*[#   6]
          +0.072*[#   7]+0.032*[#  13]+0.032*[#  14]+0.032*[#  17]+0.032*[#  18]
          +0.004*[#  11]+0.004*[#  15]+0.003*[#   5]
    |psi|^2 = 0.995
==== e(  13) =    -3.27629 eV ==== 
     psi = 0.931*[#   5]+0.012*[#  12]+0.012*[#  16]+0.008*[#   6]+0.008*[#   7]
          +0.007*[#  10]+0.003*[#   8]+0.003*[#   9]+0.001*[#  13]+0.001*[#  14]
          +0.001*[#  17]+0.001*[#  18]
    |psi|^2 = 0.989
==== e(  14) =    -3.12476 eV ==== 
     psi = 0.368*[#   8]+0.368*[#   9]+0.102*[#   6]+0.102*[#   7]+0.016*[#  12]
          +0.016*[#  16]+0.005*[#  13]+0.005*[#  14]+0.005*[#  17]+0.005*[#  18]
          +0.003*[#  10]
    |psi|^2 = 0.993
==== e(  15) =    -2.99400 eV ==== 
     psi = 0.286*[#   8]+0.286*[#   9]+0.144*[#   6]+0.144*[#   7]+0.029*[#  12]
          +0.029*[#  16]+0.018*[#  13]+0.018*[#  14]+0.018*[#  17]+0.018*[#  18]
          
    |psi|^2 = 0.991
==== e(  16) =    -1.62999 eV ==== 
     psi = 0.261*[#   6]+0.261*[#   7]+0.070*[#   8]+0.070*[#   9]+0.052*[#  12]
          +0.052*[#  16]+0.050*[#  13]+0.050*[#  14]+0.050*[#  17]+0.050*[#  18]
          +0.005*[#   5]+0.003*[#  11]+0.003*[#  15]+0.003*[#  10]
    |psi|^2 = 0.980
==== e(  17) =    -1.31478 eV ==== 
     psi = 0.213*[#   6]+0.213*[#   7]+0.116*[#  12]+0.116*[#  16]+0.094*[#   8]
          +0.094*[#   9]+0.031*[#  13]+0.031*[#  14]+0.031*[#  17]+0.031*[#  18]
          +0.005*[#  11]+0.005*[#  15]+0.001*[#   5]
    |psi|^2 = 0.986
==== e(  18) =     2.14629 eV ==== 
     psi = 0.516*[#  10]+0.064*[#  13]+0.064*[#  14]+0.064*[#  17]+0.064*[#  18]
          +0.007*[#  12]+0.007*[#  16]+0.005*[#   5]+0.003*[#   1]+0.002*[#  11]
          +0.002*[#  15]+0.001*[#   8]+0.001*[#   9]
    |psi|^2 = 0.803
==== e(  19) =     3.80775 eV ==== 
     psi = 0.004*[#  12]+0.004*[#  16]+0.002*[#  10]+0.002*[#  13]+0.002*[#  14]
          +0.002*[#  17]+0.002*[#  18]+0.002*[#   6]+0.002*[#   7]
    |psi|^2 = 0.023
==== e(  20) =     4.71105 eV ==== 
     psi = 0.008*[#  12]+0.008*[#  16]+0.005*[#  10]+0.001*[#   6]+0.001*[#   7]
          
    |psi|^2 = 0.028

 k =   0.2500000000  0.5773502692  0.0000000000
==== e(   1) =  -104.63177 eV ==== 
     psi = 0.995*[#   1]+0.001*[#  13]+0.001*[#  14]+0.001*[#  17]+0.001*[#  18]
          
    |psi|^2 = 1.000
==== e(   2) =   -64.96649 eV ==== 
     psi = 0.999*[#   2]
    |psi|^2 = 1.000
==== e(   3) =   -64.95602 eV ==== 
     psi = 0.499*[#   3]+0.499*[#   4]
    |psi|^2 = 1.000
==== e(   4) =   -64.95588 eV ==== 
     psi = 0.499*[#   3]+0.499*[#   4]
    |psi|^2 = 1.000
==== e(   5) =   -14.30463 eV ==== 
     psi = 0.488*[#  11]+0.488*[#  15]+0.003*[#  12]+0.003*[#  16]+0.003*[#   6]
          +0.003*[#   7]+0.002*[#   8]+0.002*[#   9]+0.002*[#  13]+0.002*[#  14]
          +0.002*[#  17]+0.002*[#  18]
    |psi|^2 = 0.998
==== e(   6) =   -14.20026 eV ==== 
     psi = 0.485*[#  11]+0.485*[#  15]+0.006*[#  10]+0.005*[#   6]+0.005*[#   7]
          +0.003*[#   8]+0.003*[#   9]
    |psi|^2 = 0.999
==== e(   7) =    -7.00490 eV ==== 
     psi = 0.263*[#  10]+0.168*[#  13]+0.168*[#  14]+0.168*[#  17]+0.168*[#  18]
          +0.014*[#  12]+0.014*[#  16]+0.006*[#   6]+0.006*[#   7]+0.005*[#   5]
          +0.003*[#  11]+0.003*[#  15]+0.003*[#   8]+0.003*[#   9]+0.002*[#   1]
          
    |psi|^2 = 0.995
==== e(   8) =    -6.16314 eV ==== 
     psi = 0.178*[#  13]+0.178*[#  14]+0.178*[#  17]+0.178*[#  18]+0.096*[#  12]
          +0.096*[#  16]+0.030*[#   6]+0.030*[#   7]+0.005*[#   8]+0.005*[#   9]
          +0.004*[#  11]+0.004*[#  15]
    |psi|^2 = 0.982
==== e(   9) =    -5.90856 eV ==== 
     psi = 0.176*[#  13]+0.176*[#  14]+0.176*[#  17]+0.176*[#  18]+0.071*[#  12]
          +0.071*[#  16]+0.033*[#  10]+0.027*[#   6]+0.027*[#   7]+0.018*[#   8]
          +0.018*[#   9]+0.006*[#   5]
    |psi|^2 = 0.978
==== e(  10) =    -5.04532 eV ==== 
     psi = 0.224*[#  13]+0.224*[#  14]+0.224*[#  17]+0.224*[#  18]+0.033*[#   6]
          +0.033*[#   7]+0.006*[#  12]+0.006*[#  16]
    |psi|^2 = 0.975
==== e(  11) =    -4.44444 eV ==== 
     psi = 0.305*[#  12]+0.305*[#  16]+0.070*[#   6]+0.070*[#   7]+0.056*[#   8]
          +0.056*[#   9]+0.031*[#  13]+0.031*[#  14]+0.031*[#  17]+0.031*[#  18]
          +0.003*[#  11]+0.003*[#  15]
    |psi|^2 = 0.993
==== e(  12) =    -4.36780 eV ==== 
     psi = 0.259*[#  12]+0.259*[#  16]+0.083*[#   6]+0.083*[#   7]+0.081*[#   8]
          +0.081*[#   9]+0.030*[#  13]+0.030*[#  14]+0.030*[#  17]+0.030*[#  18]
          +0.021*[#   5]+0.004*[#  11]+0.004*[#  15]+0.002*[#  10]
    |psi|^2 = 0.997
==== e(  13) =    -3.30259 eV ==== 
     psi = 0.949*[#   5]+0.009*[#  10]+0.005*[#   6]+0.005*[#   7]+0.005*[#  12]
          +0.005*[#  16]+0.003*[#   8]+0.003*[#   9]
    |psi|^2 = 0.989
==== e(  14) =    -3.08388 eV ==== 
     psi = 0.362*[#   8]+0.362*[#   9]+0.101*[#   6]+0.101*[#   7]+0.021*[#  12]
          +0.021*[#  16]+0.006*[#  13]+0.006*[#  14]+0.006*[#  17]+0.006*[#  18]
          
    |psi|^2 = 0.993
==== e(  15) =    -3.02908 eV ==== 
     psi = 0.290*[#   8]+0.290*[#   9]+0.151*[#   6]+0.151*[#   7]+0.025*[#  12]
          +0.025*[#  16]+0.015*[#  13]+0.015*[#  14]+0.015*[#  17]+0.015*[#  18]
          +0.002*[#  10]
    |psi|^2 = 0.991
==== e(  16) =    -1.57603 eV ==== 
     psi = 0.258*[#   6]+0.258*[#   7]+0.071*[#   8]+0.071*[#   9]+0.058*[#  12]
          +0.058*[#  16]+0.050*[#  13]+0.050*[#  14]+0.050*[#  17]+0.050*[#  18]
          +0.004*[#  11]+0.004*[#  15]
    |psi|^2 = 0.980
==== e(  17) =    -1.37556 eV ==== 
     psi = 0.216*[#   6]+0.216*[#   7]+0.113*[#  12]+0.113*[#  16]+0.095*[#   8]
          +0.095*[#   9]+0.030*[#  13]+0.030*[#  14]+0.030*[#  17]+0.030*[#  18]
          +0.005*[#  11]+0.005*[#  15]+0.004*[#   5]+0.003*[#  10]
    |psi|^2 = 0.984
==== e(  18) =     2.08928 eV ==== 
     psi = 0.521*[#  10]+0.065*[#  13]+0.065*[#  14]+0.065*[#  17]+0.065*[#  18]
          +0.006*[#   5]+0.005*[#  12]+0.005*[#  16]+0.003*[#   1]+0.001*[#  11]
          +0.001*[#  15]+0.001*[#   8]+0.001*[#   9]
    |psi|^2 = 0.805
==== e(  19) =     4.16637 eV ==== 
     psi = 0.006*[#  12]+0.006*[#  16]+0.003*[#   6]+0.003*[#   7]+0.002*[#  13]
          +0.002*[#  14]+0.002*[#  17]+0.002*[#  18]
    |psi|^2 = 0.025
==== e(  20) =     4.32643 eV ==== 
     psi = 0.007*[#  12]+0.007*[#  16]+0.002*[#   6]+0.002*[#   7]
    |psi|^2 = 0.020

 k =   0.3125000000  0.5412658774  0.0000000000
==== e(   1) =  -104.63177 eV ==== 
     psi = 0.995*[#   1]+0.001*[#  13]+0.001*[#  14]+0.001*[#  17]+0.001*[#  18]
          
    |psi|^2 = 1.000
==== e(   2) =   -64.96649 eV ==== 
     psi = 0.999*[#   2]
    |psi|^2 = 1.000
==== e(   3) =   -64.95599 eV ==== 
     psi = 0.499*[#   3]+0.499*[#   4]
    |psi|^2 = 1.000
==== e(   4) =   -64.95592 eV ==== 
     psi = 0.499*[#   3]+0.499*[#   4]
    |psi|^2 = 1.000
==== e(   5) =   -14.27369 eV ==== 
     psi = 0.487*[#  11]+0.487*[#  15]+0.003*[#   6]+0.003*[#   7]+0.002*[#   8]
          +0.002*[#   9]+0.002*[#  10]+0.002*[#  12]+0.002*[#  16]+0.002*[#  13]
          +0.002*[#  14]+0.002*[#  17]+0.002*[#  18]
    |psi|^2 = 0.998
==== e(   6) =   -14.20500 eV ==== 
     psi = 0.489*[#  11]+0.489*[#  15]+0.005*[#   6]+0.005*[#   7]+0.003*[#   8]
          +0.003*[#   9]+0.001*[#  12]+0.001*[#  16]
    |psi|^2 = 0.998
==== e(   7) =    -6.91279 eV ==== 
     psi = 0.293*[#  10]+0.169*[#  13]+0.169*[#  14]+0.169*[#  17]+0.169*[#  18]
          +0.007*[#   5]+0.004*[#  12]+0.004*[#  16]+0.002*[#   6]+0.002*[#   7]
          +0.002*[#   1]+0.001*[#  11]+0.001*[#  15]
    |psi|^2 = 0.996
==== e(   8) =    -6.15786 eV ==== 
     psi = 0.177*[#  13]+0.177*[#  14]+0.177*[#  17]+0.177*[#  18]+0.085*[#  12]
          +0.085*[#  16]+0.034*[#   6]+0.034*[#   7]+0.015*[#   8]+0.015*[#   9]
          +0.002*[#  11]+0.002*[#  15]
    |psi|^2 = 0.980
==== e(   9) =    -6.05384 eV ==== 
     psi = 0.170*[#  13]+0.170*[#  14]+0.170*[#  17]+0.170*[#  18]+0.095*[#  12]
          +0.095*[#  16]+0.041*[#   6]+0.041*[#   7]+0.009*[#  10]+0.007*[#   8]
          +0.007*[#   9]+0.003*[#  11]+0.003*[#  15]+0.002*[#   5]
    |psi|^2 = 0.981
==== e(  10) =    -5.14525 eV ==== 
     psi = 0.239*[#  13]+0.239*[#  14]+0.239*[#  17]+0.239*[#  18]+0.008*[#   6]
          +0.008*[#   7]+0.001*[#   2]
    |psi|^2 = 0.974
==== e(  11) =    -4.44708 eV ==== 
     psi = 0.288*[#  12]+0.288*[#  16]+0.079*[#   6]+0.079*[#   7]+0.065*[#   8]
          +0.065*[#   9]+0.030*[#  13]+0.030*[#  14]+0.030*[#  17]+0.030*[#  18]
          +0.006*[#   5]+0.003*[#  11]+0.003*[#  15]
    |psi|^2 = 0.995
==== e(  12) =    -4.35096 eV ==== 
     psi = 0.276*[#  12]+0.276*[#  16]+0.082*[#   6]+0.082*[#   7]+0.080*[#   8]
          +0.080*[#   9]+0.028*[#  13]+0.028*[#  14]+0.028*[#  17]+0.028*[#  18]
          +0.004*[#  11]+0.004*[#  15]
    |psi|^2 = 0.996
==== e(  13) =    -3.31705 eV ==== 
     psi = 0.969*[#   5]+0.010*[#  10]+0.002*[#  12]+0.002*[#  16]+0.001*[#   6]
          +0.001*[#   7]+0.001*[#   8]+0.001*[#   9]
    |psi|^2 = 0.988
==== e(  14) =    -3.06986 eV ==== 
     psi = 0.339*[#   8]+0.339*[#   9]+0.119*[#   6]+0.119*[#   7]+0.022*[#  12]
          +0.022*[#  16]+0.008*[#  13]+0.008*[#  14]+0.008*[#  17]+0.008*[#  18]
          
    |psi|^2 = 0.993
==== e(  15) =    -3.02340 eV ==== 
     psi = 0.306*[#   8]+0.306*[#   9]+0.139*[#   6]+0.139*[#   7]+0.026*[#  12]
          +0.026*[#  16]+0.012*[#  13]+0.012*[#  14]+0.012*[#  17]+0.012*[#  18]
          
    |psi|^2 = 0.992
==== e(  16) =    -1.56458 eV ==== 
     psi = 0.248*[#   6]+0.248*[#   7]+0.080*[#   8]+0.080*[#   9]+0.075*[#  12]
          +0.075*[#  16]+0.041*[#  13]+0.041*[#  14]+0.041*[#  17]+0.041*[#  18]
          +0.004*[#  11]+0.004*[#  15]+0.001*[#   5]
    |psi|^2 = 0.980
==== e(  17) =    -1.42945 eV ==== 
     psi = 0.227*[#   6]+0.227*[#   7]+0.101*[#  12]+0.101*[#  16]+0.090*[#   8]
          +0.090*[#   9]+0.034*[#  13]+0.034*[#  14]+0.034*[#  17]+0.034*[#  18]
          +0.005*[#  11]+0.005*[#  15]
    |psi|^2 = 0.982
==== e(  18) =     2.12929 eV ==== 
     psi = 0.517*[#  10]+0.066*[#  13]+0.066*[#  14]+0.066*[#  17]+0.066*[#  18]
          +0.008*[#   5]+0.003*[#   1]+0.001*[#  12]+0.001*[#  16]
    |psi|^2 = 0.796
==== e(  19) =     4.12367 eV ==== 
     psi = 0.007*[#  12]+0.007*[#  16]+0.003*[#   6]+0.003*[#   7]
    |psi|^2 = 0.025
==== e(  20) =     4.48918 eV ==== 
     psi = 0.008*[#  12]+0.008*[#  16]+0.003*[#   6]+0.003*[#   7]
    |psi|^2 = 0.026

Lowdin Charges: 

     Atom #   1: total charge =  17.3558, s =  2.6490, p =  5.9999, d =  8.7069, 
                 spin up      =   9.2841, s =  1.3200, 
                 spin up      =   9.2841, p =  2.9999, pz=  1.0000, px=  1.0000, py=  1.0000, 
                 spin up      =   9.2841, d =  4.9642, dz2=  0.9923, dxz=  0.9946, dyz=  0.9946, dx2-y2=  0.9914, dxy=  0.9914, 
                 spin down    =   8.0717, s =  1.3290, 
                 spin down    =   8.0717, p =  2.9999, pz=  1.0000, px=  1.0000, py=  1.0000, 
                 spin down    =   8.0717, d =  3.7427, dz2=  0.9760, dxz=  0.5863, dyz=  0.5863, dx2-y2=  0.7971, dxy=  0.7971, 
                 polarization =   1.2125, s = -0.0090, p =  0.0000, d =  1.2214, 
     Atom #   2: total charge =   7.2030, s =  1.9405, p =  5.2625, d =  0.0000, 
                 spin up      =   3.8021, s =  0.9743, 
                 spin up      =   3.8021, p =  2.8278, pz=  0.9564, px=  0.9357, py=  0.9357, 
                 spin up      =   3.8021, d =  0.0000, dz2=  0.0000, dxz=  0.0000, dyz=  0.0000, dx2-y2=  0.0000, dxy=  0.0000, 
                 spin down    =   3.4009, s =  0.9662, 
                 spin down    =   3.4009, p =  2.4347, pz=  0.8387, px=  0.7980, py=  0.7980, 
                 spin down    =   3.4009, d =  0.0000, dz2=  0.0000, dxz=  0.0000, dyz=  0.0000, dx2-y2=  0.0000, dxy=  0.0000, 
                 polarization =   0.4012, s =  0.0082, p =  0.3931, d =  0.0000, 
     Atom #   3: total charge =   7.2030, s =  1.9405, p =  5.2625, d =  0.0000, 
                 spin up      =   3.8021, s =  0.9743, 
                 spin up      =   3.8021, p =  2.8278, pz=  0.9564, px=  0.9357, py=  0.9357, 
                 spin up      =   3.8021, d =  0.0000, dz2=  0.0000, dxz=  0.0000, dyz=  0.0000, dx2-y2=  0.0000, dxy=  0.0000, 
                 spin down    =   3.4009, s =  0.9662, 
                 spin down    =   3.4009, p =  2.4347, pz=  0.8387, px=  0.7980, py=  0.7980, 
                 spin down    =   3.4009, d =  0.0000, dz2=  0.0000, dxz=  0.0000, dyz=  0.0000, dx2-y2=  0.0000, dxy=  0.0000, 
                 polarization =   0.4012, s =  0.0082, p =  0.3931, d =  0.0000, 
     Spilling Parameter:   0.0074
 
     PROJWFC      :     15.63s CPU     18.31s WALL

 
   This run was terminated on:  17: 4:38   8Mar2023            

=------------------------------------------------------------------------------=
   JOB DONE.
=------------------------------------------------------------------------------=
