
     Program PWSCF v.7.1 starts on 27Jun2023 at 15:29:21 

     This program is part of the open-source Quantum ESPRESSO suite
     for quantum simulation of materials; please cite
         "P. Giannozzi et al., J. Phys.:Condens. Matter 21 395502 (2009);
         "P. Giannozzi et al., J. Phys.:Condens. Matter 29 465901 (2017);
         "P. Giannozzi et al., J. Chem. Phys. 152 154105 (2020);
          URL http://www.quantum-espresso.org", 
     in publications or presentations arising from this work. More details at
     http://www.quantum-espresso.org/quote

     Parallel version (MPI & OpenMP), running on      20 processor cores
     Number of MPI processes:                20
     Threads/MPI process:                     1

     MPI processes distributed on     1 nodes
     225809 MiB available memory on the printing compute node when the environment starts
 
     Reading input from input/nscf.in

     Current dimensions of program PWSCF are:
     Max number of different atomic species (ntypx) = 10
     Max number of k-points (npk) =  40000
     Max angular momentum in pseudopotentials (lmaxx) =  4

     Atomic positions and unit cell read from directory:
     ./tmp/nnso.save/
     Atomic positions from file used, from input discarded
 

     Fixed quantization axis for GGA:     0.000000    0.000000    1.000000
 
     R & G space division:  proc/nbgrp/npool/nimage =      20
     Subspace diagonalization in iterative solution of the eigenvalue problem:
     a serial algorithm will be used

 
     Parallelization info
     --------------------
     sticks:   dense  smooth     PW     G-vecs:    dense   smooth      PW
     Min          93      89     24                20481    19267    2790
     Max          94      90     25                20502    19300    2817
     Sum        1879    1789    499               409943   385631   56191
 
     Using Slab Decomposition
 


     bravais-lattice index     =            0
     lattice parameter (alat)  =       7.3605  a.u.
     unit-cell volume          =    2170.2486 (a.u.)^3
     number of atoms/cell      =            3
     number of atomic types    =            2
     number of electrons       =        32.00
     number of Kohn-Sham states=           40
     kinetic-energy cutoff     =     120.0000  Ry
     charge density cutoff     =     500.0000  Ry
     Exchange-correlation= PBE
                           (   1   4   3   4   0   0   0)
     Noncollinear calculation without spin-orbit


     celldm(1)=   7.360481  celldm(2)=   0.000000  celldm(3)=   0.000000
     celldm(4)=   0.000000  celldm(5)=   0.000000  celldm(6)=   0.000000

     crystal axes: (cart. coord. in units of alat)
               a(1) = (   1.000000   0.000000   0.000000 )  
               a(2) = (  -0.500000   0.866025   0.000000 )  
               a(3) = (   0.000000   0.000000   6.284350 )  

     reciprocal axes: (cart. coord. in units 2 pi/alat)
               b(1) = (  1.000000  0.577350  0.000000 )  
               b(2) = (  0.000000  1.154701  0.000000 )  
               b(3) = (  0.000000  0.000000  0.159125 )  


     PseudoPot. # 1 for Ni read from file:
     ../pseudo/Ni.upf
     MD5 check sum: 14a7e289c5fff9cacaba393040e62f02
     Pseudo is Norm-conserving + core correction, Zval = 18.0
     Generated using ONCVPSP code by D. R. Hamann
     Using radial grid of 1372 points,  6 beta functions with: 
                l(1) =   0
                l(2) =   0
                l(3) =   1
                l(4) =   1
                l(5) =   2
                l(6) =   2

     PseudoPot. # 2 for I  read from file:
     ../pseudo/I.upf
     MD5 check sum: 301f7009ca0a2b18b0adf53dca02d42f
     Pseudo is Norm-conserving + core correction, Zval =  7.0
     Generated using ONCVPSP code by D. R. Hamann
     Using radial grid of 1210 points,  6 beta functions with: 
                l(1) =   0
                l(2) =   0
                l(3) =   1
                l(4) =   1
                l(5) =   2
                l(6) =   2

     atomic species   valence    mass     pseudopotential
        Ni            18.00    58.69340     Ni( 1.00)
        I              7.00   126.90447     I ( 1.00)

     No symmetry found


                                    s                        frac. trans.

      isym =  1     identity                                     

 Time Reversal            0
 cryst.   s( 1) = (     1          0          0      )
                  (     0          1          0      )
                  (     0          0          1      )

 cart.    s( 1) = (  1.0000000 -0.0000000  0.0000000 )
                  (  0.0000000  1.0000000  0.0000000 )
                  (  0.0000000  0.0000000  1.0000000 )


   Cartesian axes

     site n.     atom                  positions (alat units)
         1           Ni  tau(   1) = (   0.0000000   0.0000000   3.1421749  )
         2           I   tau(   2) = (  -0.0000000   0.5773503   3.5289144  )
         3           I   tau(   3) = (   0.5000000   0.2886751   2.7554354  )

   Crystallographic axes

     site n.     atom                  positions (cryst. coord.)
         1           Ni  tau(   1) = (  0.0000000  0.0000000  0.5000000  )
         2           I   tau(   2) = (  0.3333333  0.6666667  0.5615401  )
         3           I   tau(   3) = (  0.6666667  0.3333333  0.4384599  )

     number of k points=    61  Marzari-Vanderbilt smearing, width (Ry)=  0.0015
                       cart. coord. in units 2pi/alat
        k(    1) = (   0.0000000   0.0000000   0.0000000), wk =   0.0163934
        k(    2) = (   0.0166650   0.0288646   0.0000000), wk =   0.0163934
        k(    3) = (   0.0333300   0.0577293   0.0000000), wk =   0.0163934
        k(    4) = (   0.0499950   0.0865939   0.0000000), wk =   0.0163934
        k(    5) = (   0.0666600   0.1154585   0.0000000), wk =   0.0163934
        k(    6) = (   0.0833250   0.1443231   0.0000000), wk =   0.0163934
        k(    7) = (   0.0999900   0.1731878   0.0000000), wk =   0.0163934
        k(    8) = (   0.1166550   0.2020524   0.0000000), wk =   0.0163934
        k(    9) = (   0.1333200   0.2309170   0.0000000), wk =   0.0163934
        k(   10) = (   0.1499850   0.2597816   0.0000000), wk =   0.0163934
        k(   11) = (   0.1666500   0.2886463   0.0000000), wk =   0.0163934
        k(   12) = (   0.1833150   0.3175109   0.0000000), wk =   0.0163934
        k(   13) = (   0.1999800   0.3463755   0.0000000), wk =   0.0163934
        k(   14) = (   0.2166450   0.3752401   0.0000000), wk =   0.0163934
        k(   15) = (   0.2333100   0.4041048   0.0000000), wk =   0.0163934
        k(   16) = (   0.2499750   0.4329694   0.0000000), wk =   0.0163934
        k(   17) = (   0.2666400   0.4618340   0.0000000), wk =   0.0163934
        k(   18) = (   0.2833050   0.4906987   0.0000000), wk =   0.0163934
        k(   19) = (   0.2999700   0.5195633   0.0000000), wk =   0.0163934
        k(   20) = (   0.3166350   0.5484279   0.0000000), wk =   0.0163934
        k(   21) = (   0.3333000   0.5772925   0.0000000), wk =   0.0163934
        k(   22) = (   0.3416350   0.5628617   0.0000000), wk =   0.0163934
        k(   23) = (   0.3499700   0.5484308   0.0000000), wk =   0.0163934
        k(   24) = (   0.3583050   0.5339999   0.0000000), wk =   0.0163934
        k(   25) = (   0.3666400   0.5195691   0.0000000), wk =   0.0163934
        k(   26) = (   0.3749750   0.5051382   0.0000000), wk =   0.0163934
        k(   27) = (   0.3833100   0.4907073   0.0000000), wk =   0.0163934
        k(   28) = (   0.3916450   0.4762764   0.0000000), wk =   0.0163934
        k(   29) = (   0.3999800   0.4618456   0.0000000), wk =   0.0163934
        k(   30) = (   0.4083150   0.4474147   0.0000000), wk =   0.0163934
        k(   31) = (   0.4166500   0.4329838   0.0000000), wk =   0.0163934
        k(   32) = (   0.4249850   0.4185530   0.0000000), wk =   0.0163934
        k(   33) = (   0.4333200   0.4041221   0.0000000), wk =   0.0163934
        k(   34) = (   0.4416550   0.3896912   0.0000000), wk =   0.0163934
        k(   35) = (   0.4499900   0.3752604   0.0000000), wk =   0.0163934
        k(   36) = (   0.4583250   0.3608295   0.0000000), wk =   0.0163934
        k(   37) = (   0.4666600   0.3463986   0.0000000), wk =   0.0163934
        k(   38) = (   0.4749950   0.3319677   0.0000000), wk =   0.0163934
        k(   39) = (   0.4833300   0.3175369   0.0000000), wk =   0.0163934
        k(   40) = (   0.4916650   0.3031060   0.0000000), wk =   0.0163934
        k(   41) = (   0.5000000   0.2886751   0.0000000), wk =   0.0163934
        k(   42) = (   0.4750000   0.2742414   0.0000000), wk =   0.0163934
        k(   43) = (   0.4500000   0.2598076   0.0000000), wk =   0.0163934
        k(   44) = (   0.4250000   0.2453739   0.0000000), wk =   0.0163934
        k(   45) = (   0.4000000   0.2309401   0.0000000), wk =   0.0163934
        k(   46) = (   0.3750000   0.2165064   0.0000000), wk =   0.0163934
        k(   47) = (   0.3500000   0.2020726   0.0000000), wk =   0.0163934
        k(   48) = (   0.3250000   0.1876388   0.0000000), wk =   0.0163934
        k(   49) = (   0.3000000   0.1732051   0.0000000), wk =   0.0163934
        k(   50) = (   0.2750000   0.1587713   0.0000000), wk =   0.0163934
        k(   51) = (   0.2500000   0.1443376   0.0000000), wk =   0.0163934
        k(   52) = (   0.2250000   0.1299038   0.0000000), wk =   0.0163934
        k(   53) = (   0.2000000   0.1154701   0.0000000), wk =   0.0163934
        k(   54) = (   0.1750000   0.1010363   0.0000000), wk =   0.0163934
        k(   55) = (   0.1500000   0.0866025   0.0000000), wk =   0.0163934
        k(   56) = (   0.1250000   0.0721688   0.0000000), wk =   0.0163934
        k(   57) = (   0.1000000   0.0577350   0.0000000), wk =   0.0163934
        k(   58) = (   0.0750000   0.0433013   0.0000000), wk =   0.0163934
        k(   59) = (   0.0500000   0.0288675   0.0000000), wk =   0.0163934
        k(   60) = (   0.0250000   0.0144338   0.0000000), wk =   0.0163934
        k(   61) = (   0.0000000   0.0000000   0.0000000), wk =   0.0163934

                       cryst. coord.
        k(    1) = (   0.0000000   0.0000000   0.0000000), wk =   0.0163934
        k(    2) = (   0.0166650   0.0166650   0.0000000), wk =   0.0163934
        k(    3) = (   0.0333300   0.0333300   0.0000000), wk =   0.0163934
        k(    4) = (   0.0499950   0.0499950   0.0000000), wk =   0.0163934
        k(    5) = (   0.0666600   0.0666600   0.0000000), wk =   0.0163934
        k(    6) = (   0.0833250   0.0833250   0.0000000), wk =   0.0163934
        k(    7) = (   0.0999900   0.0999900   0.0000000), wk =   0.0163934
        k(    8) = (   0.1166550   0.1166550   0.0000000), wk =   0.0163934
        k(    9) = (   0.1333200   0.1333200   0.0000000), wk =   0.0163934
        k(   10) = (   0.1499850   0.1499850   0.0000000), wk =   0.0163934
        k(   11) = (   0.1666500   0.1666500   0.0000000), wk =   0.0163934
        k(   12) = (   0.1833150   0.1833150   0.0000000), wk =   0.0163934
        k(   13) = (   0.1999800   0.1999800   0.0000000), wk =   0.0163934
        k(   14) = (   0.2166450   0.2166450   0.0000000), wk =   0.0163934
        k(   15) = (   0.2333100   0.2333100   0.0000000), wk =   0.0163934
        k(   16) = (   0.2499750   0.2499750   0.0000000), wk =   0.0163934
        k(   17) = (   0.2666400   0.2666400   0.0000000), wk =   0.0163934
        k(   18) = (   0.2833050   0.2833050   0.0000000), wk =   0.0163934
        k(   19) = (   0.2999700   0.2999700   0.0000000), wk =   0.0163934
        k(   20) = (   0.3166350   0.3166350   0.0000000), wk =   0.0163934
        k(   21) = (   0.3333000   0.3333000   0.0000000), wk =   0.0163934
        k(   22) = (   0.3416350   0.3166350   0.0000000), wk =   0.0163934
        k(   23) = (   0.3499700   0.2999700   0.0000000), wk =   0.0163934
        k(   24) = (   0.3583050   0.2833050   0.0000000), wk =   0.0163934
        k(   25) = (   0.3666400   0.2666400   0.0000000), wk =   0.0163934
        k(   26) = (   0.3749750   0.2499750   0.0000000), wk =   0.0163934
        k(   27) = (   0.3833100   0.2333100   0.0000000), wk =   0.0163934
        k(   28) = (   0.3916450   0.2166450   0.0000000), wk =   0.0163934
        k(   29) = (   0.3999800   0.1999800   0.0000000), wk =   0.0163934
        k(   30) = (   0.4083150   0.1833150   0.0000000), wk =   0.0163934
        k(   31) = (   0.4166500   0.1666500   0.0000000), wk =   0.0163934
        k(   32) = (   0.4249850   0.1499850   0.0000000), wk =   0.0163934
        k(   33) = (   0.4333200   0.1333200   0.0000000), wk =   0.0163934
        k(   34) = (   0.4416550   0.1166550   0.0000000), wk =   0.0163934
        k(   35) = (   0.4499900   0.0999900   0.0000000), wk =   0.0163934
        k(   36) = (   0.4583250   0.0833250   0.0000000), wk =   0.0163934
        k(   37) = (   0.4666600   0.0666600   0.0000000), wk =   0.0163934
        k(   38) = (   0.4749950   0.0499950   0.0000000), wk =   0.0163934
        k(   39) = (   0.4833300   0.0333300   0.0000000), wk =   0.0163934
        k(   40) = (   0.4916650   0.0166650   0.0000000), wk =   0.0163934
        k(   41) = (   0.5000000  -0.0000000   0.0000000), wk =   0.0163934
        k(   42) = (   0.4750000  -0.0000000   0.0000000), wk =   0.0163934
        k(   43) = (   0.4500000   0.0000000   0.0000000), wk =   0.0163934
        k(   44) = (   0.4250000  -0.0000000   0.0000000), wk =   0.0163934
        k(   45) = (   0.4000000  -0.0000000   0.0000000), wk =   0.0163934
        k(   46) = (   0.3750000  -0.0000000   0.0000000), wk =   0.0163934
        k(   47) = (   0.3500000  -0.0000000   0.0000000), wk =   0.0163934
        k(   48) = (   0.3250000  -0.0000000   0.0000000), wk =   0.0163934
        k(   49) = (   0.3000000  -0.0000000   0.0000000), wk =   0.0163934
        k(   50) = (   0.2750000  -0.0000000   0.0000000), wk =   0.0163934
        k(   51) = (   0.2500000  -0.0000000   0.0000000), wk =   0.0163934
        k(   52) = (   0.2250000  -0.0000000   0.0000000), wk =   0.0163934
        k(   53) = (   0.2000000  -0.0000000   0.0000000), wk =   0.0163934
        k(   54) = (   0.1750000  -0.0000000   0.0000000), wk =   0.0163934
        k(   55) = (   0.1500000  -0.0000000   0.0000000), wk =   0.0163934
        k(   56) = (   0.1250000  -0.0000000   0.0000000), wk =   0.0163934
        k(   57) = (   0.1000000  -0.0000000   0.0000000), wk =   0.0163934
        k(   58) = (   0.0750000  -0.0000000   0.0000000), wk =   0.0163934
        k(   59) = (   0.0500000  -0.0000000   0.0000000), wk =   0.0163934
        k(   60) = (   0.0250000   0.0000000   0.0000000), wk =   0.0163934
        k(   61) = (   0.0000000   0.0000000   0.0000000), wk =   0.0163934

     Dense  grid:   409943 G-vectors     FFT dimensions: (  54,  54, 360)

     Smooth grid:   385631 G-vectors     FFT dimensions: (  54,  54, 324)

     Dynamical RAM for                 wfc:       2.94 MB

     Dynamical RAM for     wfc (w. buffer):       2.94 MB

     Dynamical RAM for           str. fact:       0.63 MB

     Dynamical RAM for           local pot:       0.00 MB

     Dynamical RAM for          nlocal pot:       1.98 MB

     Dynamical RAM for                qrad:       3.59 MB

     Dynamical RAM for          rho,v,vnew:       8.56 MB

     Dynamical RAM for           G-vectors:       1.32 MB

     Dynamical RAM for          h,s,v(r/c):       0.29 MB

     Dynamical RAM for          <psi|beta>:       0.07 MB

     Dynamical RAM for                 psi:       5.88 MB

     Dynamical RAM for                hpsi:       5.88 MB

     Dynamical RAM for      wfcinit/wfcrot:       4.45 MB

     Estimated static dynamical RAM per process >      23.16 MB

     Estimated max dynamical RAM per process >      35.28 MB

     Estimated total dynamical RAM >     705.52 MB
     Generating pointlists ...
     new r_m :   0.2867 (alat units)  2.1099 (a.u.) for type    1
     new r_m :   0.2867 (alat units)  2.1099 (a.u.) for type    2

     The potential is recalculated from file :
     ./tmp/nnso.save/charge-density

     Starting wfcs are   36 randomized atomic wfcs +    4 random wfcs

     Band Structure Calculation
     Davidson diagonalization with overlap

     Computing kpt #:     1  of    61
     total cpu time spent up to now is        3.1 secs

     Computing kpt #:     2  of    61
     total cpu time spent up to now is        4.7 secs

     Computing kpt #:     3  of    61
     total cpu time spent up to now is        6.5 secs

     Computing kpt #:     4  of    61
     total cpu time spent up to now is        8.2 secs

     Computing kpt #:     5  of    61
     total cpu time spent up to now is       10.2 secs

     Computing kpt #:     6  of    61
     total cpu time spent up to now is       12.3 secs

     Computing kpt #:     7  of    61
     total cpu time spent up to now is       14.0 secs

     Computing kpt #:     8  of    61
     total cpu time spent up to now is       15.8 secs

     Computing kpt #:     9  of    61
     total cpu time spent up to now is       17.5 secs

     Computing kpt #:    10  of    61
     total cpu time spent up to now is       19.2 secs

     Computing kpt #:    11  of    61
     total cpu time spent up to now is       20.9 secs

     Computing kpt #:    12  of    61
     total cpu time spent up to now is       22.5 secs

     Computing kpt #:    13  of    61
     total cpu time spent up to now is       24.2 secs

     Computing kpt #:    14  of    61
     total cpu time spent up to now is       25.9 secs

     Computing kpt #:    15  of    61
     total cpu time spent up to now is       27.7 secs

     Computing kpt #:    16  of    61
     total cpu time spent up to now is       29.4 secs

     Computing kpt #:    17  of    61
     total cpu time spent up to now is       31.0 secs

     Computing kpt #:    18  of    61
     total cpu time spent up to now is       32.4 secs

     Computing kpt #:    19  of    61
     total cpu time spent up to now is       33.8 secs

     Computing kpt #:    20  of    61
     total cpu time spent up to now is       35.3 secs

     Computing kpt #:    21  of    61
     total cpu time spent up to now is       36.7 secs

     Computing kpt #:    22  of    61
     total cpu time spent up to now is       38.2 secs

     Computing kpt #:    23  of    61
     total cpu time spent up to now is       39.7 secs

     Computing kpt #:    24  of    61
     total cpu time spent up to now is       41.0 secs

     Computing kpt #:    25  of    61
     total cpu time spent up to now is       42.4 secs

     Computing kpt #:    26  of    61
     total cpu time spent up to now is       43.8 secs

     Computing kpt #:    27  of    61
     total cpu time spent up to now is       45.2 secs

     Computing kpt #:    28  of    61
     total cpu time spent up to now is       46.6 secs

     Computing kpt #:    29  of    61
     total cpu time spent up to now is       48.1 secs

     Computing kpt #:    30  of    61
     total cpu time spent up to now is       49.6 secs

     Computing kpt #:    31  of    61
     total cpu time spent up to now is       51.5 secs

     Computing kpt #:    32  of    61
     total cpu time spent up to now is       53.6 secs

     Computing kpt #:    33  of    61
     total cpu time spent up to now is       55.1 secs

     Computing kpt #:    34  of    61
     total cpu time spent up to now is       56.6 secs

     Computing kpt #:    35  of    61
     total cpu time spent up to now is       58.0 secs

     Computing kpt #:    36  of    61
     total cpu time spent up to now is       59.4 secs

     Computing kpt #:    37  of    61
     total cpu time spent up to now is       60.8 secs

     Computing kpt #:    38  of    61
     total cpu time spent up to now is       62.1 secs

     Computing kpt #:    39  of    61
     total cpu time spent up to now is       63.5 secs

     Computing kpt #:    40  of    61
     total cpu time spent up to now is       64.9 secs

     Computing kpt #:    41  of    61
     total cpu time spent up to now is       66.2 secs

     Computing kpt #:    42  of    61
     total cpu time spent up to now is       67.6 secs

     Computing kpt #:    43  of    61
     total cpu time spent up to now is       69.0 secs

     Computing kpt #:    44  of    61
     total cpu time spent up to now is       70.3 secs

     Computing kpt #:    45  of    61
     total cpu time spent up to now is       71.7 secs

     Computing kpt #:    46  of    61
     total cpu time spent up to now is       73.1 secs

     Computing kpt #:    47  of    61
     total cpu time spent up to now is       74.4 secs

     Computing kpt #:    48  of    61
     total cpu time spent up to now is       75.8 secs

     Computing kpt #:    49  of    61
     total cpu time spent up to now is       77.2 secs

     Computing kpt #:    50  of    61
     total cpu time spent up to now is       78.6 secs

     Computing kpt #:    51  of    61
     total cpu time spent up to now is       80.1 secs

     Computing kpt #:    52  of    61
     total cpu time spent up to now is       81.5 secs

     Computing kpt #:    53  of    61
     total cpu time spent up to now is       82.9 secs

     Computing kpt #:    54  of    61
     total cpu time spent up to now is       84.4 secs

     Computing kpt #:    55  of    61
     total cpu time spent up to now is       85.9 secs

     Computing kpt #:    56  of    61
     total cpu time spent up to now is       87.6 secs

     Computing kpt #:    57  of    61
     total cpu time spent up to now is       89.1 secs

     Computing kpt #:    58  of    61
     total cpu time spent up to now is       90.7 secs

     Computing kpt #:    59  of    61
     total cpu time spent up to now is       92.1 secs

     Computing kpt #:    60  of    61
     total cpu time spent up to now is       93.5 secs

     Computing kpt #:    61  of    61
     total cpu time spent up to now is       95.2 secs

     ethr =  3.12E-09,  avg # of iterations = 34.8

     total cpu time spent up to now is       95.2 secs

     End of band structure calculation

          k = 0.0000 0.0000 0.0000 ( 48107 PWs)   bands (ev):

  -105.9997-104.6292 -66.4734 -66.4199 -66.4199 -64.9640 -64.9530 -64.9530
   -15.7956 -15.5708 -14.8535 -14.5973  -6.8625  -6.6434  -5.8182  -5.8182
    -4.5712  -4.5712  -4.2857  -4.2857  -3.9198  -3.7916  -3.5491  -3.3454
    -3.3454  -3.1852  -2.8815  -2.8815  -2.6292  -2.6292  -1.9854  -1.9854
    -0.8906  -0.8906   1.7664   1.8990   2.5045   2.6095   2.6844   2.7576

     occupation numbers 
     1.0000   1.0000   1.0000   1.0000   1.0000   1.0000   1.0000   1.0000
     1.0000   1.0000   1.0000   1.0000   1.0000   1.0000   1.0000   1.0000
     1.0000   1.0000   1.0000   1.0000   1.0000   1.0000   1.0000   1.0000
     1.0000   1.0000   1.0000   1.0000   1.0000   1.0000   1.0000   1.0000
     0.0000   0.0000   0.0000   0.0000   0.0000   0.0000   0.0000   0.0000

          k = 0.0167 0.0289 0.0000 ( 48103 PWs)   bands (ev):

  -105.9997-104.6292 -66.4734 -66.4199 -66.4199 -64.9640 -64.9530 -64.9530
   -15.7891 -15.5642 -14.8499 -14.5935  -6.8558  -6.6368  -5.8267  -5.8174
    -4.5972  -4.5706  -4.2946  -4.2898  -3.9287  -3.7801  -3.5322  -3.3583
    -3.3568  -3.2037  -2.9186  -2.8896  -2.6490  -2.6304  -2.0244  -1.9916
    -0.9261  -0.8959   1.7995   1.9316   2.5567   2.6652   2.6936   2.7670

     occupation numbers 
     1.0000   1.0000   1.0000   1.0000   1.0000   1.0000   1.0000   1.0000
     1.0000   1.0000   1.0000   1.0000   1.0000   1.0000   1.0000   1.0000
     1.0000   1.0000   1.0000   1.0000   1.0000   1.0000   1.0000   1.0000
     1.0000   1.0000   1.0000   1.0000   1.0000   1.0000   1.0000   1.0000
     0.0000   0.0000   0.0000   0.0000   0.0000   0.0000   0.0000   0.0000

          k = 0.0333 0.0577 0.0000 ( 48127 PWs)   bands (ev):

  -105.9997-104.6292 -66.4734 -66.4200 -66.4199 -64.9640 -64.9530 -64.9530
   -15.7697 -15.5445 -14.8392 -14.5825  -6.8358  -6.6173  -5.8517  -5.8155
    -4.6698  -4.5688  -4.3212  -4.3046  -3.9558  -3.7473  -3.4888  -3.4165
    -3.3893  -3.2446  -3.0175  -2.9155  -2.6955  -2.6353  -2.1305  -2.0133
    -1.0206  -0.9138   1.8920   2.0229   2.6875   2.7351   2.7838   2.8299

     occupation numbers 
     1.0000   1.0000   1.0000   1.0000   1.0000   1.0000   1.0000   1.0000
     1.0000   1.0000   1.0000   1.0000   1.0000   1.0000   1.0000   1.0000
     1.0000   1.0000   1.0000   1.0000   1.0000   1.0000   1.0000   1.0000
     1.0000   1.0000   1.0000   1.0000   1.0000   1.0000   1.0000   1.0000
     0.0000   0.0000   0.0000   0.0000   0.0000   0.0000   0.0000   0.0000

          k = 0.0500 0.0866 0.0000 ( 48139 PWs)   bands (ev):

  -105.9997-104.6292 -66.4734 -66.4200 -66.4200 -64.9640 -64.9530 -64.9530
   -15.7377 -15.5119 -14.8218 -14.5645  -6.8034  -6.5856  -5.8909  -5.8127
    -4.7773  -4.5670  -4.3656  -4.3401  -3.9993  -3.6975  -3.5571  -3.4626
    -3.4112  -3.2746  -3.1484  -2.9655  -2.7446  -2.6474  -2.2753  -2.0560
    -1.1456  -0.9480   2.0272   2.1565   2.7498   2.8303   2.9266   3.0473

     occupation numbers 
     1.0000   1.0000   1.0000   1.0000   1.0000   1.0000   1.0000   1.0000
     1.0000   1.0000   1.0000   1.0000   1.0000   1.0000   1.0000   1.0000
     1.0000   1.0000   1.0000   1.0000   1.0000   1.0000   1.0000   1.0000
     1.0000   1.0000   1.0000   1.0000   1.0000   1.0000   1.0000   1.0000
     0.0000   0.0000   0.0000   0.0000   0.0000   0.0000   0.0000   0.0000

          k = 0.0667 0.1155 0.0000 ( 48115 PWs)   bands (ev):

  -105.9997-104.6292 -66.4734 -66.4200 -66.4200 -64.9640 -64.9531 -64.9530
   -15.6935 -15.4670 -14.7982 -14.5401  -6.7597  -6.5432  -5.9414  -5.8099
    -4.9086  -4.5665  -4.4280  -4.4167  -4.0482  -3.7715  -3.6373  -3.5278
    -3.3608  -3.2913  -3.2783  -3.0494  -2.7841  -2.6703  -2.4217  -2.1228
    -1.2698  -1.0006   2.1868   2.3147   2.8044   2.8868   3.1594   3.1714

     occupation numbers 
     1.0000   1.0000   1.0000   1.0000   1.0000   1.0000   1.0000   1.0000
     1.0000   1.0000   1.0000   1.0000   1.0000   1.0000   1.0000   1.0000
     1.0000   1.0000   1.0000   1.0000   1.0000   1.0000   1.0000   1.0000
     1.0000   1.0000   1.0000   1.0000   1.0000   1.0000   1.0000   1.0000
     0.0000   0.0000   0.0000   0.0000   0.0000   0.0000   0.0000   0.0000

          k = 0.0833 0.1443 0.0000 ( 48105 PWs)   bands (ev):

  -105.9997-104.6292 -66.4734 -66.4200 -66.4200 -64.9640 -64.9531 -64.9530
   -15.6377 -15.4104 -14.7690 -14.5100  -6.7070  -6.4925  -6.0000  -5.8084
    -5.0554  -4.5701  -4.5530  -4.5094  -4.0842  -4.0279  -3.6167  -3.5765
    -3.3860  -3.3164  -3.3030  -3.1722  -2.8149  -2.7049  -2.5379  -2.2133
    -1.3687  -1.0709   2.3565   2.4847   2.8684   2.9548   3.0856   3.2543

     occupation numbers 
     1.0000   1.0000   1.0000   1.0000   1.0000   1.0000   1.0000   1.0000
     1.0000   1.0000   1.0000   1.0000   1.0000   1.0000   1.0000   1.0000
     1.0000   1.0000   1.0000   1.0000   1.0000   1.0000   1.0000   1.0000
     1.0000   1.0000   1.0000   1.0000   1.0000   1.0000   1.0000   1.0000
     0.0000   0.0000   0.0000   0.0000   0.0000   0.0000   0.0000   0.0000

          k = 0.1000 0.1732 0.0000 ( 48137 PWs)   bands (ev):

  -105.9997-104.6292 -66.4734 -66.4201 -66.4200 -64.9640 -64.9531 -64.9530
   -15.5714 -15.3429 -14.7354 -14.4752  -6.6488  -6.4371  -6.0636  -5.8098
    -5.2114  -4.7405  -4.6100  -4.5835  -4.2967  -4.1015  -3.7193  -3.5360
    -3.4681  -3.3125  -3.3123  -3.2983  -2.8418  -2.7461  -2.6126  -2.3242
    -1.4289  -1.1557   2.5253   2.6596   2.9385   2.9658   3.0307   3.1463

     occupation numbers 
     1.0000   1.0000   1.0000   1.0000   1.0000   1.0000   1.0000   1.0000
     1.0000   1.0000   1.0000   1.0000   1.0000   1.0000   1.0000   1.0000
     1.0000   1.0000   1.0000   1.0000   1.0000   1.0000   1.0000   1.0000
     1.0000   1.0000   1.0000   1.0000   1.0000   1.0000   1.0000   1.0000
     0.0000   0.0000   0.0000   0.0000   0.0000   0.0000   0.0000   0.0000

          k = 0.1167 0.2021 0.0000 ( 48129 PWs)   bands (ev):

  -105.9997-104.6292 -66.4734 -66.4201 -66.4200 -64.9640 -64.9532 -64.9530
   -15.4955 -15.2657 -14.6983 -14.4368  -6.5912  -6.3834  -6.1293  -5.8164
    -5.3713  -4.9499  -4.7286  -4.6436  -4.5224  -4.1058  -3.8315  -3.5871
    -3.5329  -3.3877  -3.3199  -3.3176  -2.8687  -2.7838  -2.6505  -2.4497
    -1.4490  -1.2493   2.6543   2.8282   2.8830   3.0090   3.0332   3.1088

     occupation numbers 
     1.0000   1.0000   1.0000   1.0000   1.0000   1.0000   1.0000   1.0000
     1.0000   1.0000   1.0000   1.0000   1.0000   1.0000   1.0000   1.0000
     1.0000   1.0000   1.0000   1.0000   1.0000   1.0000   1.0000   1.0000
     1.0000   1.0000   1.0000   1.0000   1.0000   1.0000   1.0000   1.0000
     0.0000   0.0000   0.0000   0.0000   0.0000   0.0000   0.0000   0.0000

          k = 0.1333 0.2309 0.0000 ( 48147 PWs)   bands (ev):

  -105.9997-104.6292 -66.4734 -66.4201 -66.4200 -64.9640 -64.9532 -64.9531
   -15.4115 -15.1801 -14.6591 -14.3963  -6.5445  -6.3412  -6.1948  -5.8296
    -5.5301  -5.1505  -4.8615  -4.8427  -4.5962  -4.1023  -3.9499  -3.7318
    -3.5904  -3.3888  -3.3760  -3.3244  -2.8983  -2.8111  -2.6580  -2.5823
    -1.4358  -1.3454   2.6214   2.8577   2.9796   3.0724   3.0750   3.1814

     occupation numbers 
     1.0000   1.0000   1.0000   1.0000   1.0000   1.0000   1.0000   1.0000
     1.0000   1.0000   1.0000   1.0000   1.0000   1.0000   1.0000   1.0000
     1.0000   1.0000   1.0000   1.0000   1.0000   1.0000   1.0000   1.0000
     1.0000   1.0000   1.0000   1.0000   1.0000   1.0000   1.0000   1.0000
     0.0000   0.0000   0.0000   0.0000   0.0000   0.0000   0.0000   0.0000

          k = 0.1500 0.2598 0.0000 ( 48139 PWs)   bands (ev):

  -105.9997-104.6291 -66.4733 -66.4202 -66.4200 -64.9640 -64.9533 -64.9531
   -15.3209 -15.0876 -14.6193 -14.3551  -6.5254  -6.3253  -6.2575  -5.8468
    -5.6827  -5.3172  -5.0377  -5.0022  -4.6428  -4.0937  -4.0717  -3.8889
    -3.6489  -3.4646  -3.3942  -3.3245  -2.9322  -2.8300  -2.7124  -2.6417
    -1.4370  -1.3999   2.5215   2.7625   3.1217   3.1676   3.2405   3.2652

     occupation numbers 
     1.0000   1.0000   1.0000   1.0000   1.0000   1.0000   1.0000   1.0000
     1.0000   1.0000   1.0000   1.0000   1.0000   1.0000   1.0000   1.0000
     1.0000   1.0000   1.0000   1.0000   1.0000   1.0000   1.0000   1.0000
     1.0000   1.0000   1.0000   1.0000   1.0000   1.0000   1.0000   1.0000
     0.0000   0.0000   0.0000   0.0000   0.0000   0.0000   0.0000   0.0000

          k = 0.1666 0.2886 0.0000 ( 48163 PWs)   bands (ev):

  -105.9997-104.6291 -66.4733 -66.4202 -66.4200 -64.9640 -64.9533 -64.9531
   -15.2255 -14.9902 -14.5804 -14.3149  -6.5531  -6.3516  -6.3154  -5.8575
    -5.8242  -5.4357  -5.1751  -5.1430  -4.6980  -4.1944  -4.0817  -4.0418
    -3.7137  -3.5712  -3.4178  -3.3187  -2.9709  -2.8460  -2.8303  -2.6107
    -1.5182  -1.3524   2.4226   2.6675   3.1541   3.2814   3.3807   3.4801

     occupation numbers 
     1.0000   1.0000   1.0000   1.0000   1.0000   1.0000   1.0000   1.0000
     1.0000   1.0000   1.0000   1.0000   1.0000   1.0000   1.0000   1.0000
     1.0000   1.0000   1.0000   1.0000   1.0000   1.0000   1.0000   1.0000
     1.0000   1.0000   1.0000   1.0000   1.0000   1.0000   1.0000   1.0000
     0.0000   0.0000   0.0000   0.0000   0.0000   0.0000   0.0000   0.0000

          k = 0.1833 0.3175 0.0000 ( 48159 PWs)   bands (ev):

  -105.9997-104.6291 -66.4733 -66.4203 -66.4201 -64.9640 -64.9533 -64.9531
   -15.1275 -14.8899 -14.5439 -14.2773  -6.6320  -6.4254  -6.3662  -5.9497
    -5.8538  -5.5084  -5.2762  -5.2506  -4.7588  -4.3167  -4.1903  -4.0669
    -3.7859  -3.6858  -3.4560  -3.3062  -3.0139  -2.9279  -2.8628  -2.5760
    -1.5846  -1.3037   2.3309   2.5792   3.1741   3.3071   3.6107   3.7113

     occupation numbers 
     1.0000   1.0000   1.0000   1.0000   1.0000   1.0000   1.0000   1.0000
     1.0000   1.0000   1.0000   1.0000   1.0000   1.0000   1.0000   1.0000
     1.0000   1.0000   1.0000   1.0000   1.0000   1.0000   1.0000   1.0000
     1.0000   1.0000   1.0000   1.0000   1.0000   1.0000   1.0000   1.0000
     0.0000   0.0000   0.0000   0.0000   0.0000   0.0000   0.0000   0.0000

          k = 0.2000 0.3464 0.0000 ( 48131 PWs)   bands (ev):

  -105.9997-104.6291 -66.4733 -66.4203 -66.4201 -64.9640 -64.9534 -64.9532
   -15.0292 -14.7891 -14.5115 -14.2440  -6.7429  -6.5326  -6.4079  -6.0552
    -5.8488  -5.5431  -5.3953  -5.2915  -4.8095  -4.4383  -4.3364  -4.0499
    -3.8610  -3.8014  -3.5025  -3.2868  -3.0596  -3.0010  -2.8816  -2.5478
    -1.6340  -1.2626   2.2455   2.4960   3.1929   3.3289   3.8561   3.9578

     occupation numbers 
     1.0000   1.0000   1.0000   1.0000   1.0000   1.0000   1.0000   1.0000
     1.0000   1.0000   1.0000   1.0000   1.0000   1.0000   1.0000   1.0000
     1.0000   1.0000   1.0000   1.0000   1.0000   1.0000   1.0000   1.0000
     1.0000   1.0000   1.0000   1.0000   1.0000   1.0000   1.0000   1.0000
     0.0000   0.0000   0.0000   0.0000   0.0000   0.0000   0.0000   0.0000

          k = 0.2166 0.3752 0.0000 ( 48159 PWs)   bands (ev):

  -105.9997-104.6291 -66.4733 -66.4203 -66.4201 -64.9640 -64.9534 -64.9532
   -14.9330 -14.6902 -14.4845 -14.2163  -6.8600  -6.6498  -6.4389  -6.1374
    -5.8668  -5.5443  -5.4954  -5.3431  -4.8245  -4.5589  -4.4819  -4.0325
    -3.9287  -3.9127  -3.5519  -3.2615  -3.1061  -3.0498  -2.9024  -2.5335
    -1.6657  -1.2362   2.1654   2.4168   3.2240   3.3616   4.1147   4.2180

     occupation numbers 
     1.0000   1.0000   1.0000   1.0000   1.0000   1.0000   1.0000   1.0000
     1.0000   1.0000   1.0000   1.0000   1.0000   1.0000   1.0000   1.0000
     1.0000   1.0000   1.0000   1.0000   1.0000   1.0000   1.0000   1.0000
     1.0000   1.0000   1.0000   1.0000   1.0000   1.0000   1.0000   1.0000
     0.0000   0.0000   0.0000   0.0000   0.0000   0.0000   0.0000   0.0000

          k = 0.2333 0.4041 0.0000 ( 48177 PWs)   bands (ev):

  -105.9997-104.6291 -66.4733 -66.4203 -66.4201 -64.9640 -64.9534 -64.9532
   -14.8415 -14.5958 -14.4640 -14.1956  -6.9643  -6.7574  -6.4583  -6.1939
    -5.9189  -5.5730  -5.5228  -5.4335  -4.7913  -4.6783  -4.6271  -4.0284
    -4.0162  -3.9663  -3.6003  -3.2337  -3.1496  -3.0768  -2.9243  -2.5379
    -1.6804  -1.2290   2.0910   2.3420   3.2793   3.4188   4.3815   4.4876

     occupation numbers 
     1.0000   1.0000   1.0000   1.0000   1.0000   1.0000   1.0000   1.0000
     1.0000   1.0000   1.0000   1.0000   1.0000   1.0000   1.0000   1.0000
     1.0000   1.0000   1.0000   1.0000   1.0000   1.0000   1.0000   1.0000
     1.0000   1.0000   1.0000   1.0000   1.0000   1.0000   1.0000   1.0000
     0.0000   0.0000   0.0000   0.0000   0.0000   0.0000   0.0000   0.0000

          k = 0.2500 0.4330 0.0000 ( 48187 PWs)   bands (ev):

  -105.9997-104.6291 -66.4733 -66.4203 -66.4202 -64.9639 -64.9534 -64.9532
   -14.7569 -14.5083 -14.4508 -14.1826  -7.0441  -6.8430  -6.4665  -6.2243
    -6.0000  -5.6249  -5.5571  -5.4948  -4.7953  -4.7716  -4.7239  -4.1092
    -4.0528  -3.9535  -3.6454  -3.2210  -3.1723  -3.0844  -2.9464  -2.5627
    -1.6792  -1.2424   2.0243   2.2740   3.3665   3.5092   4.6340   4.7470

     occupation numbers 
     1.0000   1.0000   1.0000   1.0000   1.0000   1.0000   1.0000   1.0000
     1.0000   1.0000   1.0000   1.0000   1.0000   1.0000   1.0000   1.0000
     1.0000   1.0000   1.0000   1.0000   1.0000   1.0000   1.0000   1.0000
     1.0000   1.0000   1.0000   1.0000   1.0000   1.0000   1.0000   1.0000
     0.0000   0.0000   0.0000   0.0000   0.0000   0.0000   0.0000   0.0000

          k = 0.2666 0.4618 0.0000 ( 48211 PWs)   bands (ev):

  -105.9997-104.6291 -66.4733 -66.4203 -66.4202 -64.9639 -64.9534 -64.9533
   -14.6814 -14.4454 -14.4299 -14.1777  -7.0933  -6.8998  -6.4655  -6.2296
    -6.1012  -5.6975  -5.6483  -5.4714  -4.9137  -4.9075  -4.6425  -4.1902
    -4.0744  -3.9222  -3.6857  -3.2480  -3.1499  -3.0744  -2.9681  -2.6070
    -1.6637  -1.2752   1.9685   2.2160   3.4883   3.6362   4.7333   4.8751

     occupation numbers 
     1.0000   1.0000   1.0000   1.0000   1.0000   1.0000   1.0000   1.0000
     1.0000   1.0000   1.0000   1.0000   1.0000   1.0000   1.0000   1.0000
     1.0000   1.0000   1.0000   1.0000   1.0000   1.0000   1.0000   1.0000
     1.0000   1.0000   1.0000   1.0000   1.0000   1.0000   1.0000   1.0000
     0.0000   0.0000   0.0000   0.0000   0.0000   0.0000   0.0000   0.0000

          k = 0.2833 0.4907 0.0000 ( 48211 PWs)   bands (ev):

  -105.9997-104.6291 -66.4733 -66.4203 -66.4202 -64.9639 -64.9534 -64.9533
   -14.6167 -14.4476 -14.3624 -14.1810  -7.1101  -6.9259  -6.4592  -6.2135
    -6.2128  -5.8402  -5.6405  -5.4565  -5.0513  -5.0103  -4.5616  -4.2587
    -4.0858  -3.8860  -3.7206  -3.2789  -3.1180  -3.0477  -2.9886  -2.6677
    -1.6357  -1.3236   1.9262   2.1713   3.6421   3.7969   4.6040   4.7663

     occupation numbers 
     1.0000   1.0000   1.0000   1.0000   1.0000   1.0000   1.0000   1.0000
     1.0000   1.0000   1.0000   1.0000   1.0000   1.0000   1.0000   1.0000
     1.0000   1.0000   1.0000   1.0000   1.0000   1.0000   1.0000   1.0000
     1.0000   1.0000   1.0000   1.0000   1.0000   1.0000   1.0000   1.0000
     0.0000   0.0000   0.0000   0.0000   0.0000   0.0000   0.0000   0.0000

          k = 0.3000 0.5196 0.0000 ( 48217 PWs)   bands (ev):

  -105.9997-104.6291 -66.4733 -66.4203 -66.4202 -64.9639 -64.9534 -64.9533
   -14.5639 -14.4571 -14.3069 -14.1919  -7.0981  -6.9246  -6.4517  -6.3224
    -6.1831  -5.9717  -5.6003  -5.4504  -5.1816  -5.0966  -4.4901  -4.3151
    -4.0903  -3.8503  -3.7500  -3.3029  -3.0876  -3.0078  -3.0058  -2.7395
    -1.5972  -1.3817   1.8994   2.1419   3.8189   3.9815   4.4369   4.6065

     occupation numbers 
     1.0000   1.0000   1.0000   1.0000   1.0000   1.0000   1.0000   1.0000
     1.0000   1.0000   1.0000   1.0000   1.0000   1.0000   1.0000   1.0000
     1.0000   1.0000   1.0000   1.0000   1.0000   1.0000   1.0000   1.0000
     1.0000   1.0000   1.0000   1.0000   1.0000   1.0000   1.0000   1.0000
     0.0000   0.0000   0.0000   0.0000   0.0000   0.0000   0.0000   0.0000

          k = 0.3166 0.5484 0.0000 ( 48229 PWs)   bands (ev):

  -105.9997-104.6291 -66.4733 -66.4203 -66.4203 -64.9639 -64.9534 -64.9533
   -14.5232 -14.4730 -14.2637 -14.2095  -7.0696  -6.9072  -6.4469  -6.4110
    -6.1491  -6.0749  -5.5299  -5.4518  -5.3005  -5.1565  -4.4338  -4.3602
    -4.0914  -3.8192  -3.7744  -3.3175  -3.0618  -3.0256  -2.9510  -2.8155
    -1.5509  -1.4429   1.8871   2.1277   3.9992   4.1692   4.2802   4.4531

     occupation numbers 
     1.0000   1.0000   1.0000   1.0000   1.0000   1.0000   1.0000   1.0000
     1.0000   1.0000   1.0000   1.0000   1.0000   1.0000   1.0000   1.0000
     1.0000   1.0000   1.0000   1.0000   1.0000   1.0000   1.0000   1.0000
     1.0000   1.0000   1.0000   1.0000   1.0000   1.0000   1.0000   1.0000
     0.0000   0.0000   0.0000   0.0000   0.0000   0.0000   0.0000   0.0000

          k = 0.3333 0.5773 0.0000 ( 48189 PWs)   bands (ev):

  -105.9997-104.6291 -66.4733 -66.4203 -66.4203 -64.9639 -64.9534 -64.9534
   -14.4943 -14.4942 -14.2327 -14.2326  -7.0521  -6.8953  -6.4471  -6.4470
    -6.1253  -6.1253  -5.4590  -5.4589  -5.3803  -5.1787  -4.3951  -4.3950
    -4.0914  -3.7953  -3.7952  -3.3223  -3.0422  -3.0421  -2.8875  -2.8872
    -1.5000  -1.4997   1.8849   2.1247   4.1474   4.1479   4.3212   4.3217

     occupation numbers 
     1.0000   1.0000   1.0000   1.0000   1.0000   1.0000   1.0000   1.0000
     1.0000   1.0000   1.0000   1.0000   1.0000   1.0000   1.0000   1.0000
     1.0000   1.0000   1.0000   1.0000   1.0000   1.0000   1.0000   1.0000
     1.0000   1.0000   1.0000   1.0000   1.0000   1.0000   1.0000   1.0000
     0.0000   0.0000   0.0000   0.0000   0.0000   0.0000   0.0000   0.0000

          k = 0.3416 0.5629 0.0000 ( 48219 PWs)   bands (ev):

  -105.9997-104.6291 -66.4733 -66.4203 -66.4203 -64.9639 -64.9534 -64.9534
   -14.5063 -14.4839 -14.2458 -14.2213  -7.0581  -6.8997  -6.4493  -6.4340
    -6.1221  -6.1211  -5.4810  -5.4642  -5.3494  -5.1729  -4.4089  -4.3822
    -4.0915  -3.8050  -3.7865  -3.3212  -3.0501  -3.0350  -2.9184  -2.8539
    -1.5243  -1.4736   1.8847   2.1248   4.0941   4.1952   4.2674   4.3681

     occupation numbers 
     1.0000   1.0000   1.0000   1.0000   1.0000   1.0000   1.0000   1.0000
     1.0000   1.0000   1.0000   1.0000   1.0000   1.0000   1.0000   1.0000
     1.0000   1.0000   1.0000   1.0000   1.0000   1.0000   1.0000   1.0000
     1.0000   1.0000   1.0000   1.0000   1.0000   1.0000   1.0000   1.0000
     0.0000   0.0000   0.0000   0.0000   0.0000   0.0000   0.0000   0.0000

          k = 0.3500 0.5484 0.0000 ( 48221 PWs)   bands (ev):

  -105.9997-104.6291 -66.4733 -66.4203 -66.4203 -64.9639 -64.9534 -64.9533
   -14.5192 -14.4760 -14.2597 -14.2126  -7.0765  -6.9137  -6.4532  -6.3979
    -6.1230  -6.0974  -5.5211  -5.4702  -5.2927  -5.1555  -4.4205  -4.3734
    -4.0917  -3.8149  -3.7799  -3.3181  -3.0580  -3.0299  -2.9442  -2.8202
    -1.5449  -1.4476   1.8828   2.1236   4.0511   4.2193   4.2233   4.3893

     occupation numbers 
     1.0000   1.0000   1.0000   1.0000   1.0000   1.0000   1.0000   1.0000
     1.0000   1.0000   1.0000   1.0000   1.0000   1.0000   1.0000   1.0000
     1.0000   1.0000   1.0000   1.0000   1.0000   1.0000   1.0000   1.0000
     1.0000   1.0000   1.0000   1.0000   1.0000   1.0000   1.0000   1.0000
     0.0000   0.0000   0.0000   0.0000   0.0000   0.0000   0.0000   0.0000

          k = 0.3583 0.5340 0.0000 ( 48227 PWs)   bands (ev):

  -105.9997-104.6291 -66.4733 -66.4203 -66.4202 -64.9639 -64.9534 -64.9533
   -14.5327 -14.4705 -14.2742 -14.2063  -7.1054  -6.9371  -6.4585  -6.3405
    -6.1311  -6.0519  -5.5609  -5.4769  -5.2298  -5.1273  -4.4301  -4.3682
    -4.0922  -3.8254  -3.7754  -3.3134  -3.0658  -3.0268  -2.9632  -2.7870
    -1.5606  -1.4221   1.8772   2.1190   4.0200   4.1907   4.2206   4.3863

     occupation numbers 
     1.0000   1.0000   1.0000   1.0000   1.0000   1.0000   1.0000   1.0000
     1.0000   1.0000   1.0000   1.0000   1.0000   1.0000   1.0000   1.0000
     1.0000   1.0000   1.0000   1.0000   1.0000   1.0000   1.0000   1.0000
     1.0000   1.0000   1.0000   1.0000   1.0000   1.0000   1.0000   1.0000
     0.0000   0.0000   0.0000   0.0000   0.0000   0.0000   0.0000   0.0000

          k = 0.3666 0.5196 0.0000 ( 48227 PWs)   bands (ev):

  -105.9997-104.6291 -66.4733 -66.4203 -66.4202 -64.9639 -64.9534 -64.9533
   -14.5466 -14.4671 -14.2891 -14.2021  -7.1419  -6.9680  -6.4653  -6.2651
    -6.1446  -5.9877  -5.5977  -5.4840  -5.1648  -5.0897  -4.4377  -4.3662
    -4.0930  -3.8370  -3.7730  -3.3073  -3.0737  -3.0258  -2.9739  -2.7548
    -1.5707  -1.3974   1.8653   2.1087   4.0026   4.1713   4.2027   4.3636

     occupation numbers 
     1.0000   1.0000   1.0000   1.0000   1.0000   1.0000   1.0000   1.0000
     1.0000   1.0000   1.0000   1.0000   1.0000   1.0000   1.0000   1.0000
     1.0000   1.0000   1.0000   1.0000   1.0000   1.0000   1.0000   1.0000
     1.0000   1.0000   1.0000   1.0000   1.0000   1.0000   1.0000   1.0000
     0.0000   0.0000   0.0000   0.0000   0.0000   0.0000   0.0000   0.0000

          k = 0.3750 0.5051 0.0000 ( 48231 PWs)   bands (ev):

  -105.9997-104.6291 -66.4733 -66.4203 -66.4202 -64.9639 -64.9534 -64.9533
   -14.5607 -14.4654 -14.3042 -14.1999  -7.1828  -7.0042  -6.4735  -6.1753
    -6.1625  -5.9077  -5.6307  -5.4913  -5.0997  -5.0447  -4.4437  -4.3669
    -4.0941  -3.8502  -3.7728  -3.3004  -3.0817  -3.0270  -2.9747  -2.7241
    -1.5744  -1.3739   1.8449   2.0899   4.0004   4.1668   4.1706   4.3267

     occupation numbers 
     1.0000   1.0000   1.0000   1.0000   1.0000   1.0000   1.0000   1.0000
     1.0000   1.0000   1.0000   1.0000   1.0000   1.0000   1.0000   1.0000
     1.0000   1.0000   1.0000   1.0000   1.0000   1.0000   1.0000   1.0000
     1.0000   1.0000   1.0000   1.0000   1.0000   1.0000   1.0000   1.0000
     0.0000   0.0000   0.0000   0.0000   0.0000   0.0000   0.0000   0.0000

          k = 0.3833 0.4907 0.0000 ( 48209 PWs)   bands (ev):

  -105.9997-104.6291 -66.4733 -66.4203 -66.4202 -64.9639 -64.9535 -64.9533
   -14.5749 -14.4654 -14.3194 -14.1992  -7.2260  -7.0435  -6.4830  -6.1837
    -6.0740  -5.8147  -5.6596  -5.4987  -5.0364  -4.9942  -4.4480  -4.3696
    -4.0956  -3.8652  -3.7745  -3.2928  -3.0899  -3.0305  -2.9646  -2.6952
    -1.5710  -1.3519   1.8136   2.0605   4.0147   4.1287   4.1787   4.2804

     occupation numbers 
     1.0000   1.0000   1.0000   1.0000   1.0000   1.0000   1.0000   1.0000
     1.0000   1.0000   1.0000   1.0000   1.0000   1.0000   1.0000   1.0000
     1.0000   1.0000   1.0000   1.0000   1.0000   1.0000   1.0000   1.0000
     1.0000   1.0000   1.0000   1.0000   1.0000   1.0000   1.0000   1.0000
     0.0000   0.0000   0.0000   0.0000   0.0000   0.0000   0.0000   0.0000

          k = 0.3916 0.4763 0.0000 ( 48181 PWs)   bands (ev):

  -105.9997-104.6291 -66.4733 -66.4204 -66.4202 -64.9639 -64.9535 -64.9533
   -14.5889 -14.4666 -14.3343 -14.2000  -7.2695  -7.0841  -6.4935  -6.2069
    -5.9637  -5.7114  -5.6844  -5.5056  -4.9761  -4.9404  -4.4508  -4.3738
    -4.0976  -3.8823  -3.7784  -3.2851  -3.0982  -3.0362  -2.9427  -2.6686
    -1.5601  -1.3316   1.7699   2.0184   4.0464   4.0802   4.2080   4.2278

     occupation numbers 
     1.0000   1.0000   1.0000   1.0000   1.0000   1.0000   1.0000   1.0000
     1.0000   1.0000   1.0000   1.0000   1.0000   1.0000   1.0000   1.0000
     1.0000   1.0000   1.0000   1.0000   1.0000   1.0000   1.0000   1.0000
     1.0000   1.0000   1.0000   1.0000   1.0000   1.0000   1.0000   1.0000
     0.0000   0.0000   0.0000   0.0000   0.0000   0.0000   0.0000   0.0000

          k = 0.4000 0.4618 0.0000 ( 48181 PWs)   bands (ev):

  -105.9997-104.6291 -66.4733 -66.4204 -66.4202 -64.9639 -64.9535 -64.9532
   -14.6026 -14.4690 -14.3490 -14.2019  -7.3122  -7.1245  -6.5050  -6.2312
    -5.8471  -5.7053  -5.6000  -5.5115  -4.9202  -4.8851  -4.4524  -4.3789
    -4.1002  -3.9011  -3.7844  -3.2776  -3.1067  -3.0444  -2.9089  -2.6444
    -1.5413  -1.3130   1.7130   1.9629   4.0267   4.0957   4.1706   4.2550

     occupation numbers 
     1.0000   1.0000   1.0000   1.0000   1.0000   1.0000   1.0000   1.0000
     1.0000   1.0000   1.0000   1.0000   1.0000   1.0000   1.0000   1.0000
     1.0000   1.0000   1.0000   1.0000   1.0000   1.0000   1.0000   1.0000
     1.0000   1.0000   1.0000   1.0000   1.0000   1.0000   1.0000   1.0000
     0.0000   0.0000   0.0000   0.0000   0.0000   0.0000   0.0000   0.0000

          k = 0.4083 0.4474 0.0000 ( 48161 PWs)   bands (ev):

  -105.9997-104.6291 -66.4733 -66.4204 -66.4202 -64.9639 -64.9535 -64.9532
   -14.6158 -14.4721 -14.3630 -14.2047  -7.3533  -7.1639  -6.5171  -6.2557
    -5.7276  -5.7224  -5.5143  -5.4828  -4.8694  -4.8300  -4.4529  -4.3844
    -4.1035  -3.9212  -3.7926  -3.2707  -3.1153  -3.0548  -2.8638  -2.6228
    -1.5147  -1.2965   1.6430   1.8940   3.9683   4.1090   4.1622   4.3195

     occupation numbers 
     1.0000   1.0000   1.0000   1.0000   1.0000   1.0000   1.0000   1.0000
     1.0000   1.0000   1.0000   1.0000   1.0000   1.0000   1.0000   1.0000
     1.0000   1.0000   1.0000   1.0000   1.0000   1.0000   1.0000   1.0000
     1.0000   1.0000   1.0000   1.0000   1.0000   1.0000   1.0000   1.0000
     0.0000   0.0000   0.0000   0.0000   0.0000   0.0000   0.0000   0.0000

          k = 0.4166 0.4330 0.0000 ( 48198 PWs)   bands (ev):

  -105.9997-104.6291 -66.4733 -66.4204 -66.4201 -64.9639 -64.9535 -64.9532
   -14.6285 -14.4758 -14.3764 -14.2081  -7.3921  -7.2014  -6.5295  -6.2798
    -5.7362  -5.6177  -5.5031  -5.3620  -4.8246  -4.7767  -4.4523  -4.3897
    -4.1077  -3.9420  -3.8030  -3.2647  -3.1239  -3.0676  -2.8085  -2.6038
    -1.4805  -1.2818   1.5615   1.8132   3.9028   4.0409   4.2448   4.3120

     occupation numbers 
     1.0000   1.0000   1.0000   1.0000   1.0000   1.0000   1.0000   1.0000
     1.0000   1.0000   1.0000   1.0000   1.0000   1.0000   1.0000   1.0000
     1.0000   1.0000   1.0000   1.0000   1.0000   1.0000   1.0000   1.0000
     1.0000   1.0000   1.0000   1.0000   1.0000   1.0000   1.0000   1.0000
     0.0000   0.0000   0.0000   0.0000   0.0000   0.0000   0.0000   0.0000

          k = 0.4250 0.4186 0.0000 ( 48190 PWs)   bands (ev):

  -105.9997-104.6291 -66.4733 -66.4204 -66.4201 -64.9639 -64.9535 -64.9532
   -14.6403 -14.4799 -14.3890 -14.2119  -7.4281  -7.2364  -6.5419  -6.3028
    -5.7468  -5.5663  -5.4305  -5.2398  -4.7858  -4.7262  -4.4510  -4.3941
    -4.1132  -3.9629  -3.8157  -3.2603  -3.1324  -3.0823  -2.7450  -2.5876
    -1.4396  -1.2692   1.4707   1.7229   3.8245   3.9616   4.1812   4.3163

     occupation numbers 
     1.0000   1.0000   1.0000   1.0000   1.0000   1.0000   1.0000   1.0000
     1.0000   1.0000   1.0000   1.0000   1.0000   1.0000   1.0000   1.0000
     1.0000   1.0000   1.0000   1.0000   1.0000   1.0000   1.0000   1.0000
     1.0000   1.0000   1.0000   1.0000   1.0000   1.0000   1.0000   1.0000
     0.0000   0.0000   0.0000   0.0000   0.0000   0.0000   0.0000   0.0000

          k = 0.4333 0.4041 0.0000 ( 48210 PWs)   bands (ev):

  -105.9997-104.6291 -66.4733 -66.4204 -66.4201 -64.9639 -64.9535 -64.9532
   -14.6512 -14.4841 -14.4006 -14.2159  -7.4610  -7.2686  -6.5540  -6.3243
    -5.7549  -5.5606  -5.3107  -5.1188  -4.7530  -4.6797  -4.4491  -4.3967
    -4.1203  -3.9831  -3.8306  -3.2581  -3.1407  -3.0986  -2.6753  -2.5739
    -1.3929  -1.2585   1.3740   1.6265   3.7251   3.8641   4.0675   4.1638

     occupation numbers 
     1.0000   1.0000   1.0000   1.0000   1.0000   1.0000   1.0000   1.0000
     1.0000   1.0000   1.0000   1.0000   1.0000   1.0000   1.0000   1.0000
     1.0000   1.0000   1.0000   1.0000   1.0000   1.0000   1.0000   1.0000
     1.0000   1.0000   1.0000   1.0000   1.0000   1.0000   1.0000   1.0000
     0.0000   0.0000   0.0000   0.0000   0.0000   0.0000   0.0000   0.0000

          k = 0.4417 0.3897 0.0000 ( 48232 PWs)   bands (ev):

  -105.9997-104.6291 -66.4733 -66.4204 -66.4201 -64.9639 -64.9535 -64.9532
   -14.6612 -14.4883 -14.4112 -14.2199  -7.4905  -7.2975  -6.5655  -6.3440
    -5.7607  -5.5628  -5.1831  -5.0022  -4.7261  -4.6378  -4.4469  -4.3965
    -4.1297  -4.0020  -3.8476  -3.2591  -3.1484  -3.1153  -2.6025  -2.5628
    -1.3423  -1.2497   1.2753   1.5280   3.6013   3.7448   3.9703   4.0529

     occupation numbers 
     1.0000   1.0000   1.0000   1.0000   1.0000   1.0000   1.0000   1.0000
     1.0000   1.0000   1.0000   1.0000   1.0000   1.0000   1.0000   1.0000
     1.0000   1.0000   1.0000   1.0000   1.0000   1.0000   1.0000   1.0000
     1.0000   1.0000   1.0000   1.0000   1.0000   1.0000   1.0000   1.0000
     0.0000   0.0000   0.0000   0.0000   0.0000   0.0000   0.0000   0.0000

          k = 0.4500 0.3753 0.0000 ( 48224 PWs)   bands (ev):

  -105.9997-104.6291 -66.4733 -66.4204 -66.4201 -64.9639 -64.9535 -64.9532
   -14.6700 -14.4923 -14.4205 -14.2237  -7.5165  -7.3230  -6.5761  -6.3615
    -5.7647  -5.5665  -5.0557  -4.8937  -4.7045  -4.6011  -4.4444  -4.3918
    -4.1426  -4.0191  -3.8661  -3.2646  -3.1555  -3.1311  -2.5540  -2.5295
    -1.2897  -1.2426   1.1787   1.4317   3.4633   3.6106   3.8890   3.9772

     occupation numbers 
     1.0000   1.0000   1.0000   1.0000   1.0000   1.0000   1.0000   1.0000
     1.0000   1.0000   1.0000   1.0000   1.0000   1.0000   1.0000   1.0000
     1.0000   1.0000   1.0000   1.0000   1.0000   1.0000   1.0000   1.0000
     1.0000   1.0000   1.0000   1.0000   1.0000   1.0000   1.0000   1.0000
     0.0000   0.0000   0.0000   0.0000   0.0000   0.0000   0.0000   0.0000

          k = 0.4583 0.3608 0.0000 ( 48216 PWs)   bands (ev):

  -105.9997-104.6291 -66.4733 -66.4204 -66.4201 -64.9639 -64.9535 -64.9532
   -14.6776 -14.4960 -14.4286 -14.2272  -7.5387  -7.3449  -6.5855  -6.3766
    -5.7674  -5.5704  -4.9316  -4.7982  -4.6877  -4.5698  -4.4418  -4.3807
    -4.1602  -4.0340  -3.8853  -3.2756  -3.1619  -3.1442  -2.5473  -2.4596
    -1.2378  -1.2370   1.0883   1.3417   3.3264   3.4754   3.8224   3.9250

     occupation numbers 
     1.0000   1.0000   1.0000   1.0000   1.0000   1.0000   1.0000   1.0000
     1.0000   1.0000   1.0000   1.0000   1.0000   1.0000   1.0000   1.0000
     1.0000   1.0000   1.0000   1.0000   1.0000   1.0000   1.0000   1.0000
     1.0000   1.0000   1.0000   1.0000   1.0000   1.0000   1.0000   1.0000
     0.0000   0.0000   0.0000   0.0000   0.0000   0.0000   0.0000   0.0000

          k = 0.4667 0.3464 0.0000 ( 48246 PWs)   bands (ev):

  -105.9997-104.6291 -66.4733 -66.4204 -66.4201 -64.9639 -64.9535 -64.9531
   -14.6840 -14.4991 -14.4353 -14.2302  -7.5570  -7.3629  -6.5935  -6.3893
    -5.7690  -5.5738  -4.8132  -4.7209  -4.6751  -4.5442  -4.4395  -4.3613
    -4.1844  -4.0464  -3.9039  -3.2919  -3.1673  -3.1536  -2.5424  -2.3963
    -1.2329  -1.1893   1.0081   1.2620   3.2026   3.3514   3.7695   3.8880

     occupation numbers 
     1.0000   1.0000   1.0000   1.0000   1.0000   1.0000   1.0000   1.0000
     1.0000   1.0000   1.0000   1.0000   1.0000   1.0000   1.0000   1.0000
     1.0000   1.0000   1.0000   1.0000   1.0000   1.0000   1.0000   1.0000
     1.0000   1.0000   1.0000   1.0000   1.0000   1.0000   1.0000   1.0000
     0.0000   0.0000   0.0000   0.0000   0.0000   0.0000   0.0000   0.0000

          k = 0.4750 0.3320 0.0000 ( 48256 PWs)   bands (ev):

  -105.9997-104.6291 -66.4733 -66.4204 -66.4201 -64.9639 -64.9535 -64.9531
   -14.6890 -14.5016 -14.4406 -14.2327  -7.5713  -7.3771  -6.6000  -6.3992
    -5.7699  -5.5766  -4.7029  -4.6660  -4.6652  -4.5244  -4.4375  -4.3341
    -4.2167  -4.0561  -3.9202  -3.3113  -3.1716  -3.1594  -2.5391  -2.3428
    -1.2300  -1.1473   0.9417   1.1961   3.0996   3.2471   3.7294   3.8618

     occupation numbers 
     1.0000   1.0000   1.0000   1.0000   1.0000   1.0000   1.0000   1.0000
     1.0000   1.0000   1.0000   1.0000   1.0000   1.0000   1.0000   1.0000
     1.0000   1.0000   1.0000   1.0000   1.0000   1.0000   1.0000   1.0000
     1.0000   1.0000   1.0000   1.0000   1.0000   1.0000   1.0000   1.0000
     0.0000   0.0000   0.0000   0.0000   0.0000   0.0000   0.0000   0.0000

          k = 0.4833 0.3175 0.0000 ( 48226 PWs)   bands (ev):

  -105.9997-104.6291 -66.4733 -66.4204 -66.4201 -64.9639 -64.9535 -64.9531
   -14.6926 -14.5035 -14.4444 -14.2345  -7.5816  -7.3873  -6.6046  -6.4064
    -5.7703  -5.5786  -4.6599  -4.6305  -4.6038  -4.5103  -4.4359  -4.3044
    -4.2575  -4.0631  -3.9328  -3.3300  -3.1748  -3.1626  -2.5370  -2.3021
    -1.2281  -1.1147   0.8920   1.1469   3.0226   3.1686   3.7013   3.8440

     occupation numbers 
     1.0000   1.0000   1.0000   1.0000   1.0000   1.0000   1.0000   1.0000
     1.0000   1.0000   1.0000   1.0000   1.0000   1.0000   1.0000   1.0000
     1.0000   1.0000   1.0000   1.0000   1.0000   1.0000   1.0000   1.0000
     1.0000   1.0000   1.0000   1.0000   1.0000   1.0000   1.0000   1.0000
     0.0000   0.0000   0.0000   0.0000   0.0000   0.0000   0.0000   0.0000

          k = 0.4917 0.3031 0.0000 ( 48230 PWs)   bands (ev):

  -105.9997-104.6291 -66.4733 -66.4204 -66.4201 -64.9639 -64.9535 -64.9531
   -14.6947 -14.5047 -14.4467 -14.2357  -7.5878  -7.3934  -6.6075  -6.4107
    -5.7705  -5.5799  -4.6565  -4.6124  -4.5228  -4.5018  -4.4349  -4.3025
    -4.2813  -4.0673  -3.9406  -3.3435  -3.1767  -3.1642  -2.5358  -2.2767
    -1.2270  -1.0941   0.8612   1.1164   2.9751   3.1198   3.6847   3.8337

     occupation numbers 
     1.0000   1.0000   1.0000   1.0000   1.0000   1.0000   1.0000   1.0000
     1.0000   1.0000   1.0000   1.0000   1.0000   1.0000   1.0000   1.0000
     1.0000   1.0000   1.0000   1.0000   1.0000   1.0000   1.0000   1.0000
     1.0000   1.0000   1.0000   1.0000   1.0000   1.0000   1.0000   1.0000
     0.0000   0.0000   0.0000   0.0000   0.0000   0.0000   0.0000   0.0000

          k = 0.5000 0.2887 0.0000 ( 48254 PWs)   bands (ev):

  -105.9997-104.6291 -66.4733 -66.4204 -66.4201 -64.9639 -64.9535 -64.9531
   -14.6955 -14.5051 -14.4475 -14.2360  -7.5898  -7.3954  -6.6085  -6.4122
    -5.7705  -5.5803  -4.6553  -4.6068  -4.4990  -4.4848  -4.4346  -4.3284
    -4.2726  -4.0687  -3.9432  -3.3485  -3.1774  -3.1647  -2.5354  -2.2680
    -1.2267  -1.0870   0.8508   1.1062   2.9590   3.1033   3.6792   3.8304

     occupation numbers 
     1.0000   1.0000   1.0000   1.0000   1.0000   1.0000   1.0000   1.0000
     1.0000   1.0000   1.0000   1.0000   1.0000   1.0000   1.0000   1.0000
     1.0000   1.0000   1.0000   1.0000   1.0000   1.0000   1.0000   1.0000
     1.0000   1.0000   1.0000   1.0000   1.0000   1.0000   1.0000   1.0000
     0.0000   0.0000   0.0000   0.0000   0.0000   0.0000   0.0000   0.0000

          k = 0.4750 0.2742 0.0000 ( 48238 PWs)   bands (ev):

  -105.9997-104.6291 -66.4733 -66.4204 -66.4201 -64.9639 -64.9535 -64.9531
   -14.7094 -14.5018 -14.4616 -14.2330  -7.5725  -7.3780  -6.6041  -6.4031
    -5.7704  -5.5798  -4.6629  -4.6530  -4.4993  -4.4879  -4.3908  -4.3225
    -4.2683  -4.0581  -3.9347  -3.3481  -3.1735  -3.1587  -2.5399  -2.2673
    -1.2320  -1.0869   0.8621   1.1160   2.9650   3.1099   3.6294   3.8249

     occupation numbers 
     1.0000   1.0000   1.0000   1.0000   1.0000   1.0000   1.0000   1.0000
     1.0000   1.0000   1.0000   1.0000   1.0000   1.0000   1.0000   1.0000
     1.0000   1.0000   1.0000   1.0000   1.0000   1.0000   1.0000   1.0000
     1.0000   1.0000   1.0000   1.0000   1.0000   1.0000   1.0000   1.0000
     0.0000   0.0000   0.0000   0.0000   0.0000   0.0000   0.0000   0.0000

          k = 0.4500 0.2598 0.0000 ( 48236 PWs)   bands (ev):

  -105.9997-104.6291 -66.4733 -66.4204 -66.4201 -64.9639 -64.9535 -64.9531
   -14.7472 -14.5001 -14.4957 -14.2271  -7.5208  -7.3264  -6.5912  -6.3764
    -5.7701  -5.5801  -4.7404  -4.6783  -4.5002  -4.4961  -4.3093  -4.3080
    -4.2555  -4.0279  -3.9107  -3.3470  -3.1621  -3.1418  -2.5535  -2.2654
    -1.2479  -1.0865   0.8961   1.1460   2.9817   3.1284   3.5621   3.7475

     occupation numbers 
     1.0000   1.0000   1.0000   1.0000   1.0000   1.0000   1.0000   1.0000
     1.0000   1.0000   1.0000   1.0000   1.0000   1.0000   1.0000   1.0000
     1.0000   1.0000   1.0000   1.0000   1.0000   1.0000   1.0000   1.0000
     1.0000   1.0000   1.0000   1.0000   1.0000   1.0000   1.0000   1.0000
     0.0000   0.0000   0.0000   0.0000   0.0000   0.0000   0.0000   0.0000

          k = 0.4250 0.2454 0.0000 ( 48212 PWs)   bands (ev):

  -105.9997-104.6291 -66.4733 -66.4204 -66.4201 -64.9640 -64.9535 -64.9531
   -14.8019 -14.5561 -14.4924 -14.2239  -7.4368  -7.2423  -6.5702  -6.3336
    -5.7698  -5.5860  -4.8357  -4.6857  -4.5063  -4.5018  -4.2909  -4.2342
    -4.2196  -3.9811  -3.8752  -3.3453  -3.1433  -3.1162  -2.5766  -2.2620
    -1.2745  -1.0858   0.9531   1.1971   3.0059   3.1552   3.5155   3.6950

     occupation numbers 
     1.0000   1.0000   1.0000   1.0000   1.0000   1.0000   1.0000   1.0000
     1.0000   1.0000   1.0000   1.0000   1.0000   1.0000   1.0000   1.0000
     1.0000   1.0000   1.0000   1.0000   1.0000   1.0000   1.0000   1.0000
     1.0000   1.0000   1.0000   1.0000   1.0000   1.0000   1.0000   1.0000
     0.0000   0.0000   0.0000   0.0000   0.0000   0.0000   0.0000   0.0000

          k = 0.4000 0.2309 0.0000 ( 48204 PWs)   bands (ev):

  -105.9997-104.6291 -66.4733 -66.4204 -66.4201 -64.9640 -64.9535 -64.9531
   -14.8683 -14.6241 -14.4951 -14.2268  -7.3232  -7.1285  -6.5421  -6.2771
    -5.7696  -5.6026  -4.9288  -4.6698  -4.5154  -4.5041  -4.2740  -4.2046
    -4.1258  -3.9213  -3.8333  -3.3428  -3.1174  -3.0851  -2.6095  -2.2572
    -1.3115  -1.0846   1.0335   1.2703   3.0319   3.1843   3.4957   3.6698

     occupation numbers 
     1.0000   1.0000   1.0000   1.0000   1.0000   1.0000   1.0000   1.0000
     1.0000   1.0000   1.0000   1.0000   1.0000   1.0000   1.0000   1.0000
     1.0000   1.0000   1.0000   1.0000   1.0000   1.0000   1.0000   1.0000
     1.0000   1.0000   1.0000   1.0000   1.0000   1.0000   1.0000   1.0000
     0.0000   0.0000   0.0000   0.0000   0.0000   0.0000   0.0000   0.0000

          k = 0.3750 0.2165 0.0000 ( 48212 PWs)   bands (ev):

  -105.9997-104.6291 -66.4733 -66.4204 -66.4200 -64.9640 -64.9535 -64.9531
   -14.9427 -14.7005 -14.5049 -14.2369  -7.1849  -6.9896  -6.5081  -6.2106
    -5.7697  -5.6310  -5.0120  -4.6209  -4.5213  -4.5070  -4.2578  -4.1672
    -4.0278  -3.8514  -3.7895  -3.3396  -3.0850  -3.0515  -2.6523  -2.2509
    -1.3578  -1.0828   1.1370   1.3664   3.0535   3.2082   3.5000   3.6682

     occupation numbers 
     1.0000   1.0000   1.0000   1.0000   1.0000   1.0000   1.0000   1.0000
     1.0000   1.0000   1.0000   1.0000   1.0000   1.0000   1.0000   1.0000
     1.0000   1.0000   1.0000   1.0000   1.0000   1.0000   1.0000   1.0000
     1.0000   1.0000   1.0000   1.0000   1.0000   1.0000   1.0000   1.0000
     0.0000   0.0000   0.0000   0.0000   0.0000   0.0000   0.0000   0.0000

          k = 0.3500 0.2021 0.0000 ( 48210 PWs)   bands (ev):

  -105.9997-104.6291 -66.4733 -66.4203 -66.4200 -64.9640 -64.9534 -64.9531
   -15.0225 -14.7824 -14.5214 -14.2539  -7.0287  -6.8324  -6.4695  -6.1385
    -5.7704  -5.6654  -5.0763  -4.5377  -4.5225  -4.5107  -4.2409  -4.1223
    -3.9256  -3.7736  -3.7466  -3.3357  -3.0470  -3.0181  -2.7045  -2.2430
    -1.4114  -1.0802   1.2631   1.4851   3.0660   3.2205   3.5142   3.6738

     occupation numbers 
     1.0000   1.0000   1.0000   1.0000   1.0000   1.0000   1.0000   1.0000
     1.0000   1.0000   1.0000   1.0000   1.0000   1.0000   1.0000   1.0000
     1.0000   1.0000   1.0000   1.0000   1.0000   1.0000   1.0000   1.0000
     1.0000   1.0000   1.0000   1.0000   1.0000   1.0000   1.0000   1.0000
     0.0000   0.0000   0.0000   0.0000   0.0000   0.0000   0.0000   0.0000

          k = 0.3250 0.1876 0.0000 ( 48206 PWs)   bands (ev):

  -105.9997-104.6291 -66.4733 -66.4203 -66.4200 -64.9640 -64.9534 -64.9531
   -15.1053 -14.8672 -14.5439 -14.2771  -6.8659  -6.6679  -6.4285  -6.0643
    -5.7719  -5.6923  -5.1098  -4.5184  -4.5151  -4.4264  -4.2197  -4.0706
    -3.8196  -3.7064  -3.6899  -3.3311  -3.0041  -2.9868  -2.7648  -2.2332
    -1.4692  -1.0765   1.4103   1.6257   3.0657   3.2162   3.5058   3.6501

     occupation numbers 
     1.0000   1.0000   1.0000   1.0000   1.0000   1.0000   1.0000   1.0000
     1.0000   1.0000   1.0000   1.0000   1.0000   1.0000   1.0000   1.0000
     1.0000   1.0000   1.0000   1.0000   1.0000   1.0000   1.0000   1.0000
     1.0000   1.0000   1.0000   1.0000   1.0000   1.0000   1.0000   1.0000
     0.0000   0.0000   0.0000   0.0000   0.0000   0.0000   0.0000   0.0000

          k = 0.3000 0.1732 0.0000 ( 48198 PWs)   bands (ev):

  -105.9997-104.6291 -66.4733 -66.4203 -66.4200 -64.9640 -64.9534 -64.9531
   -15.1891 -14.9530 -14.5711 -14.3053  -6.7147  -6.5156  -6.3861  -5.9848
    -5.7742  -5.6911  -5.1003  -4.5200  -4.5089  -4.3090  -4.1776  -4.0127
    -3.7120  -3.6692  -3.6020  -3.3259  -2.9584  -2.9577  -2.8306  -2.2214
    -1.5264  -1.0712   1.5766   1.7860   3.0479   3.1904   3.4418   3.5685

     occupation numbers 
     1.0000   1.0000   1.0000   1.0000   1.0000   1.0000   1.0000   1.0000
     1.0000   1.0000   1.0000   1.0000   1.0000   1.0000   1.0000   1.0000
     1.0000   1.0000   1.0000   1.0000   1.0000   1.0000   1.0000   1.0000
     1.0000   1.0000   1.0000   1.0000   1.0000   1.0000   1.0000   1.0000
     0.0000   0.0000   0.0000   0.0000   0.0000   0.0000   0.0000   0.0000

          k = 0.2750 0.1588 0.0000 ( 48166 PWs)   bands (ev):

  -105.9997-104.6291 -66.4733 -66.4202 -66.4200 -64.9640 -64.9533 -64.9531
   -15.2722 -15.0379 -14.6018 -14.3370  -6.6033  -6.4050  -6.3388  -5.8836
    -5.7773  -5.6377  -5.0388  -4.5254  -4.4944  -4.2414  -4.0659  -3.9495
    -3.6347  -3.6066  -3.5118  -3.3200  -2.9333  -2.9092  -2.8980  -2.2073
    -1.5769  -1.0640   1.7592   1.9634   3.0056   3.1369   3.3364   3.4527

     occupation numbers 
     1.0000   1.0000   1.0000   1.0000   1.0000   1.0000   1.0000   1.0000
     1.0000   1.0000   1.0000   1.0000   1.0000   1.0000   1.0000   1.0000
     1.0000   1.0000   1.0000   1.0000   1.0000   1.0000   1.0000   1.0000
     1.0000   1.0000   1.0000   1.0000   1.0000   1.0000   1.0000   1.0000
     0.0000   0.0000   0.0000   0.0000   0.0000   0.0000   0.0000   0.0000

          k = 0.2500 0.1443 0.0000 ( 48148 PWs)   bands (ev):

  -105.9997-104.6292 -66.4734 -66.4202 -66.4200 -64.9640 -64.9533 -64.9531
   -15.3528 -15.1202 -14.6346 -14.3709  -6.5559  -6.3568  -6.2785  -5.7812
    -5.7461  -5.5180  -4.9244  -4.5312  -4.4754  -4.2121  -3.9050  -3.8821
    -3.6020  -3.5094  -3.4210  -3.3136  -2.9596  -2.9108  -2.8603  -2.1909
    -1.6135  -1.0545   1.9544   2.1545   2.9324   3.0516   3.2258   3.3371

     occupation numbers 
     1.0000   1.0000   1.0000   1.0000   1.0000   1.0000   1.0000   1.0000
     1.0000   1.0000   1.0000   1.0000   1.0000   1.0000   1.0000   1.0000
     1.0000   1.0000   1.0000   1.0000   1.0000   1.0000   1.0000   1.0000
     1.0000   1.0000   1.0000   1.0000   1.0000   1.0000   1.0000   1.0000
     0.0000   0.0000   0.0000   0.0000   0.0000   0.0000   0.0000   0.0000

          k = 0.2250 0.1299 0.0000 ( 48160 PWs)   bands (ev):

  -105.9997-104.6292 -66.4734 -66.4201 -66.4200 -64.9640 -64.9532 -64.9531
   -15.4296 -15.1986 -14.6682 -14.4057  -6.5631  -6.3598  -6.2100  -5.7858
    -5.5833  -5.3413  -4.7626  -4.5371  -4.4529  -4.1899  -3.8116  -3.7403
    -3.5708  -3.4281  -3.3316  -3.3069  -3.0012  -2.8898  -2.8128  -2.1718
    -1.6276  -1.0422   2.1567   2.3543   2.8298   2.9384   3.1280   3.2348

     occupation numbers 
     1.0000   1.0000   1.0000   1.0000   1.0000   1.0000   1.0000   1.0000
     1.0000   1.0000   1.0000   1.0000   1.0000   1.0000   1.0000   1.0000
     1.0000   1.0000   1.0000   1.0000   1.0000   1.0000   1.0000   1.0000
     1.0000   1.0000   1.0000   1.0000   1.0000   1.0000   1.0000   1.0000
     0.0000   0.0000   0.0000   0.0000   0.0000   0.0000   0.0000   0.0000

          k = 0.2000 0.1155 0.0000 ( 48154 PWs)   bands (ev):

  -105.9997-104.6292 -66.4734 -66.4201 -66.4200 -64.9640 -64.9532 -64.9530
   -15.5014 -15.2716 -14.7015 -14.4401  -6.5991  -6.3912  -6.1422  -5.7907
    -5.4152  -5.1318  -4.5627  -4.5430  -4.4280  -4.1675  -3.7394  -3.6029
    -3.5437  -3.3694  -3.3016  -3.2457  -2.9952  -2.8689  -2.7685  -2.1501
    -1.6113  -1.0269   2.3534   2.5529   2.7153   2.8124   3.0432   3.1450

     occupation numbers 
     1.0000   1.0000   1.0000   1.0000   1.0000   1.0000   1.0000   1.0000
     1.0000   1.0000   1.0000   1.0000   1.0000   1.0000   1.0000   1.0000
     1.0000   1.0000   1.0000   1.0000   1.0000   1.0000   1.0000   1.0000
     1.0000   1.0000   1.0000   1.0000   1.0000   1.0000   1.0000   1.0000
     0.0000   0.0000   0.0000   0.0000   0.0000   0.0000   0.0000   0.0000

          k = 0.1750 0.1010 0.0000 ( 48150 PWs)   bands (ev):

  -105.9997-104.6292 -66.4734 -66.4201 -66.4200 -64.9640 -64.9531 -64.9530
   -15.5670 -15.3384 -14.7333 -14.4731  -6.6465  -6.4351  -6.0779  -5.7959
    -5.2533  -4.9148  -4.5488  -4.4019  -4.3370  -4.1417  -3.6671  -3.5479
    -3.4951  -3.3336  -3.3028  -3.1654  -2.9116  -2.8470  -2.7291  -2.1258
    -1.5596  -1.0087   2.4646   2.6360   2.6707   2.7870   2.9681   3.0666

     occupation numbers 
     1.0000   1.0000   1.0000   1.0000   1.0000   1.0000   1.0000   1.0000
     1.0000   1.0000   1.0000   1.0000   1.0000   1.0000   1.0000   1.0000
     1.0000   1.0000   1.0000   1.0000   1.0000   1.0000   1.0000   1.0000
     1.0000   1.0000   1.0000   1.0000   1.0000   1.0000   1.0000   1.0000
     0.0000   0.0000   0.0000   0.0000   0.0000   0.0000   0.0000   0.0000

          k = 0.1500 0.0866 0.0000 ( 48150 PWs)   bands (ev):

  -105.9997-104.6292 -66.4734 -66.4200 -66.4200 -64.9640 -64.9531 -64.9530
   -15.6255 -15.3980 -14.7628 -14.5036  -6.6963  -6.4823  -6.0178  -5.8009
    -5.1021  -4.7134  -4.5542  -4.3759  -4.1100  -4.0998  -3.5965  -3.5720
    -3.4164  -3.3195  -3.3116  -3.0926  -2.8236  -2.7606  -2.6962  -2.0996
    -1.4735  -0.9879   2.3734   2.5077   2.7974   2.9087   2.9229   3.0233

     occupation numbers 
     1.0000   1.0000   1.0000   1.0000   1.0000   1.0000   1.0000   1.0000
     1.0000   1.0000   1.0000   1.0000   1.0000   1.0000   1.0000   1.0000
     1.0000   1.0000   1.0000   1.0000   1.0000   1.0000   1.0000   1.0000
     1.0000   1.0000   1.0000   1.0000   1.0000   1.0000   1.0000   1.0000
     0.0000   0.0000   0.0000   0.0000   0.0000   0.0000   0.0000   0.0000

          k = 0.1250 0.0722 0.0000 ( 48142 PWs)   bands (ev):

  -105.9997-104.6292 -66.4734 -66.4200 -66.4200 -64.9640 -64.9531 -64.9530
   -15.6763 -15.4496 -14.7891 -14.5308  -6.7432  -6.5273  -5.9628  -5.8057
    -4.9634  -4.5590  -4.5480  -4.3513  -4.0702  -3.8676  -3.6184  -3.5299
    -3.3515  -3.3258  -3.2978  -3.0292  -2.7973  -2.6704  -2.5795  -2.0724
    -1.3602  -0.9654   2.2368   2.3657   2.8212   2.9052   2.9553   3.1007

     occupation numbers 
     1.0000   1.0000   1.0000   1.0000   1.0000   1.0000   1.0000   1.0000
     1.0000   1.0000   1.0000   1.0000   1.0000   1.0000   1.0000   1.0000
     1.0000   1.0000   1.0000   1.0000   1.0000   1.0000   1.0000   1.0000
     1.0000   1.0000   1.0000   1.0000   1.0000   1.0000   1.0000   1.0000
     0.0000   0.0000   0.0000   0.0000   0.0000   0.0000   0.0000   0.0000

          k = 0.1000 0.0577 0.0000 ( 48133 PWs)   bands (ev):

  -105.9997-104.6292 -66.4734 -66.4200 -66.4200 -64.9640 -64.9530 -64.9530
   -15.7186 -15.4926 -14.8116 -14.5540  -6.7844  -6.5672  -5.9143  -5.8099
    -4.8389  -4.5632  -4.4305  -4.3293  -4.0244  -3.6707  -3.6596  -3.4696
    -3.3974  -3.2839  -3.2168  -2.9763  -2.7656  -2.6518  -2.3971  -2.0457
    -1.2317  -0.9429   2.0977   2.2265   2.7738   2.8547   2.9662   3.0947

     occupation numbers 
     1.0000   1.0000   1.0000   1.0000   1.0000   1.0000   1.0000   1.0000
     1.0000   1.0000   1.0000   1.0000   1.0000   1.0000   1.0000   1.0000
     1.0000   1.0000   1.0000   1.0000   1.0000   1.0000   1.0000   1.0000
     1.0000   1.0000   1.0000   1.0000   1.0000   1.0000   1.0000   1.0000
     0.0000   0.0000   0.0000   0.0000   0.0000   0.0000   0.0000   0.0000

          k = 0.0750 0.0433 0.0000 ( 48113 PWs)   bands (ev):

  -105.9997-104.6292 -66.4734 -66.4200 -66.4200 -64.9640 -64.9530 -64.9530
   -15.7520 -15.5265 -14.8296 -14.5726  -6.8178  -6.5997  -5.8740  -5.8134
    -4.7316  -4.5667  -4.3569  -4.3109  -3.9805  -3.7192  -3.5009  -3.4450
    -3.4183  -3.2648  -3.0974  -2.9349  -2.7264  -2.6399  -2.2323  -2.0216
    -1.1037  -0.9222   1.9686   2.0986   2.7299   2.8111   2.8287   2.9447

     occupation numbers 
     1.0000   1.0000   1.0000   1.0000   1.0000   1.0000   1.0000   1.0000
     1.0000   1.0000   1.0000   1.0000   1.0000   1.0000   1.0000   1.0000
     1.0000   1.0000   1.0000   1.0000   1.0000   1.0000   1.0000   1.0000
     1.0000   1.0000   1.0000   1.0000   1.0000   1.0000   1.0000   1.0000
     0.0000   0.0000   0.0000   0.0000   0.0000   0.0000   0.0000   0.0000

          k = 0.0500 0.0289 0.0000 ( 48107 PWs)   bands (ev):

  -105.9997-104.6292 -66.4734 -66.4200 -66.4199 -64.9640 -64.9530 -64.9530
   -15.7762 -15.5510 -14.8428 -14.5862  -6.8424  -6.6237  -5.8436  -5.8160
    -4.6466  -4.5692  -4.3144  -4.2971  -3.9467  -3.7580  -3.5022  -3.3938
    -3.3789  -3.2335  -2.9874  -2.9052  -2.6820  -2.6332  -2.1006  -2.0023
    -0.9932  -0.9054   1.8622   1.9935   2.6507   2.7158   2.7612   2.7936

     occupation numbers 
     1.0000   1.0000   1.0000   1.0000   1.0000   1.0000   1.0000   1.0000
     1.0000   1.0000   1.0000   1.0000   1.0000   1.0000   1.0000   1.0000
     1.0000   1.0000   1.0000   1.0000   1.0000   1.0000   1.0000   1.0000
     1.0000   1.0000   1.0000   1.0000   1.0000   1.0000   1.0000   1.0000
     0.0000   0.0000   0.0000   0.0000   0.0000   0.0000   0.0000   0.0000

          k = 0.0250 0.0144 0.0000 ( 48115 PWs)   bands (ev):

  -105.9997-104.6292 -66.4734 -66.4199 -66.4199 -64.9640 -64.9530 -64.9530
   -15.7908 -15.5658 -14.8508 -14.5945  -6.8575  -6.6384  -5.8246  -5.8176
    -4.5909  -4.5707  -4.2925  -4.2886  -3.9265  -3.7830  -3.5363  -3.3548
    -3.3539  -3.1992  -2.9096  -2.8874  -2.6443  -2.6301  -2.0151  -1.9898
    -0.9176  -0.8944   1.7914   1.9236   2.5439   2.6516   2.6912   2.7646

     occupation numbers 
     1.0000   1.0000   1.0000   1.0000   1.0000   1.0000   1.0000   1.0000
     1.0000   1.0000   1.0000   1.0000   1.0000   1.0000   1.0000   1.0000
     1.0000   1.0000   1.0000   1.0000   1.0000   1.0000   1.0000   1.0000
     1.0000   1.0000   1.0000   1.0000   1.0000   1.0000   1.0000   1.0000
     0.0000   0.0000   0.0000   0.0000   0.0000   0.0000   0.0000   0.0000

          k = 0.0000 0.0000 0.0000 ( 48107 PWs)   bands (ev):

  -105.9997-104.6292 -66.4734 -66.4199 -66.4199 -64.9640 -64.9530 -64.9530
   -15.7956 -15.5708 -14.8535 -14.5973  -6.8625  -6.6434  -5.8182  -5.8182
    -4.5712  -4.5712  -4.2857  -4.2857  -3.9198  -3.7916  -3.5491  -3.3454
    -3.3454  -3.1852  -2.8815  -2.8815  -2.6292  -2.6292  -1.9854  -1.9854
    -0.8906  -0.8906   1.7664   1.8990   2.5045   2.6095   2.6844   2.7576

     occupation numbers 
     1.0000   1.0000   1.0000   1.0000   1.0000   1.0000   1.0000   1.0000
     1.0000   1.0000   1.0000   1.0000   1.0000   1.0000   1.0000   1.0000
     1.0000   1.0000   1.0000   1.0000   1.0000   1.0000   1.0000   1.0000
     1.0000   1.0000   1.0000   1.0000   1.0000   1.0000   1.0000   1.0000
     0.0000   0.0000   0.0000   0.0000   0.0000   0.0000   0.0000   0.0000

     the Fermi energy is    -1.8796 ev
     (compare with:    -1.7810 eV, computed in scf)

     Writing all to output data dir ./tmp/nnso.save/
 
     init_run     :      0.88s CPU      0.93s WALL (       1 calls)
     electrons    :     93.57s CPU     94.09s WALL (       1 calls)

     Called by init_run:
     wfcinit      :      0.00s CPU      0.00s WALL (       1 calls)
     wfcinit:atom :      0.08s CPU      0.09s WALL (      61 calls)
     wfcinit:wfcr :      4.48s CPU      4.49s WALL (      61 calls)
     potinit      :      0.08s CPU      0.11s WALL (       1 calls)
     hinit0       :      0.69s CPU      0.71s WALL (       1 calls)

     Called by electrons:
     c_bands      :     93.57s CPU     94.09s WALL (       1 calls)
     v_of_rho     :      0.06s CPU      0.07s WALL (       1 calls)
     v_h          :      0.00s CPU      0.00s WALL (       1 calls)
     v_xc         :      0.06s CPU      0.07s WALL (       1 calls)

     Called by c_bands:
     init_us_2    :      0.05s CPU      0.06s WALL (      61 calls)
     init_us_2:cp :      0.05s CPU      0.06s WALL (      61 calls)
     cegterg      :     87.51s CPU     87.77s WALL (     131 calls)

     Called by sum_band:

     Called by *egterg:
     cdiaghg      :      4.15s CPU      4.15s WALL (    2181 calls)
     cegterg:over :      6.77s CPU      6.78s WALL (    2120 calls)
     cegterg:upda :      4.19s CPU      4.20s WALL (    2120 calls)
     cegterg:last :      5.58s CPU      5.58s WALL (     975 calls)
     h_psi        :     67.79s CPU     68.02s WALL (    2312 calls)
     g_psi        :      0.64s CPU      0.64s WALL (    2120 calls)

     Called by h_psi:
     h_psi:calbec :      2.55s CPU      2.56s WALL (    2312 calls)
     vloc_psi     :     62.04s CPU     62.25s WALL (    2312 calls)
     add_vuspsi   :      2.41s CPU      2.42s WALL (    2312 calls)

     General routines
     calbec       :      2.55s CPU      2.56s WALL (    2312 calls)
     fft          :      0.10s CPU      0.13s WALL (      27 calls)
     ffts         :      0.00s CPU      0.00s WALL (       4 calls)
     fftw         :     49.45s CPU     49.61s WALL (  160324 calls)
     interpolate  :      0.01s CPU      0.01s WALL (       4 calls)
     davcio       :      0.17s CPU      0.45s WALL (     122 calls)
 
     Parallel routines
 
     PWSCF        :   1m36.49s CPU   1m39.05s WALL

 
   This run was terminated on:  15:31: 0  27Jun2023            

=------------------------------------------------------------------------------=
   JOB DONE.
=------------------------------------------------------------------------------=
