
     Program PROJWFC v.7.1 starts on 27Jun2023 at 15:31: 2

     This program is part of the open-source Quantum ESPRESSO suite
     for quantum simulation of materials; please cite
         "P. Giannozzi et al., J. Phys.:Condens. Matter 21 395502 (2009);
         "P. Giannozzi et al., J. Phys.:Condens. Matter 29 465901 (2017);
         "P. Giannozzi et al., J. Chem. Phys. 152 154105 (2020);
          URL http://www.quantum-espresso.org",
     in publications or presentations arising from this work. More details at
     http://www.quantum-espresso.org/quote

     Parallel version (MPI & OpenMP), running on      20 processor cores
     Number of MPI processes:                20
     Threads/MPI process:                     1

     MPI processes distributed on     1 nodes
     R & G space division:  proc/nbgrp/npool/nimage =      20
     227478 MiB available memory on the printing compute node when the environment starts


     Reading xml data from directory:

     ./tmp/nnso.save/

     IMPORTANT: XC functional enforced from input :
     Exchange-correlation= PBE
                           (   1   4   3   4   0   0   0)
     Any further DFT definition will be discarded
     Please, verify this is what you really want


     Parallelization info
     --------------------
     sticks:   dense  smooth     PW     G-vecs:    dense   smooth      PW
     Min          93      89     24                20481    19267    2790
     Max          94      90     25                20502    19300    2817
     Sum        1879    1789    499               409943   385631   56191

     Using Slab Decomposition


     Gaussian broadening (read from input): ngauss,degauss=   0    0.003000


     Calling projwave ....
     Subspace diagonalization in iterative solution of the eigenvalue problem:
     one sub-group per band group will be used
     ELPA distributed-memory algorithm (size of sub-group:  4*  4 procs)

     linear algebra parallelized on  16 procs

  Problem Sizes
  natomwfc =           36
  nx       =            9
  nbnd     =           40
  nkstot   =           61
  npwx     =         2398
  nkb      =           54


     Atomic states used for projection
     (read from pseudopotential files):

     state #   1: atom   1 (Ni ), wfc  1 (l=0 m= 1 s_z= 0.5)
     state #   2: atom   1 (Ni ), wfc  1 (l=0 m= 1 s_z=-0.5)
     state #   3: atom   1 (Ni ), wfc  2 (l=1 m= 1 s_z= 0.5)
     state #   4: atom   1 (Ni ), wfc  2 (l=1 m= 2 s_z= 0.5)
     state #   5: atom   1 (Ni ), wfc  2 (l=1 m= 3 s_z= 0.5)
     state #   6: atom   1 (Ni ), wfc  2 (l=1 m= 1 s_z=-0.5)
     state #   7: atom   1 (Ni ), wfc  2 (l=1 m= 2 s_z=-0.5)
     state #   8: atom   1 (Ni ), wfc  2 (l=1 m= 3 s_z=-0.5)
     state #   9: atom   1 (Ni ), wfc  3 (l=2 m= 1 s_z= 0.5)
     state #  10: atom   1 (Ni ), wfc  3 (l=2 m= 2 s_z= 0.5)
     state #  11: atom   1 (Ni ), wfc  3 (l=2 m= 3 s_z= 0.5)
     state #  12: atom   1 (Ni ), wfc  3 (l=2 m= 4 s_z= 0.5)
     state #  13: atom   1 (Ni ), wfc  3 (l=2 m= 5 s_z= 0.5)
     state #  14: atom   1 (Ni ), wfc  3 (l=2 m= 1 s_z=-0.5)
     state #  15: atom   1 (Ni ), wfc  3 (l=2 m= 2 s_z=-0.5)
     state #  16: atom   1 (Ni ), wfc  3 (l=2 m= 3 s_z=-0.5)
     state #  17: atom   1 (Ni ), wfc  3 (l=2 m= 4 s_z=-0.5)
     state #  18: atom   1 (Ni ), wfc  3 (l=2 m= 5 s_z=-0.5)
     state #  19: atom   1 (Ni ), wfc  4 (l=0 m= 1 s_z= 0.5)
     state #  20: atom   1 (Ni ), wfc  4 (l=0 m= 1 s_z=-0.5)
     state #  21: atom   2 (I  ), wfc  1 (l=0 m= 1 s_z= 0.5)
     state #  22: atom   2 (I  ), wfc  1 (l=0 m= 1 s_z=-0.5)
     state #  23: atom   2 (I  ), wfc  2 (l=1 m= 1 s_z= 0.5)
     state #  24: atom   2 (I  ), wfc  2 (l=1 m= 2 s_z= 0.5)
     state #  25: atom   2 (I  ), wfc  2 (l=1 m= 3 s_z= 0.5)
     state #  26: atom   2 (I  ), wfc  2 (l=1 m= 1 s_z=-0.5)
     state #  27: atom   2 (I  ), wfc  2 (l=1 m= 2 s_z=-0.5)
     state #  28: atom   2 (I  ), wfc  2 (l=1 m= 3 s_z=-0.5)
     state #  29: atom   3 (I  ), wfc  1 (l=0 m= 1 s_z= 0.5)
     state #  30: atom   3 (I  ), wfc  1 (l=0 m= 1 s_z=-0.5)
     state #  31: atom   3 (I  ), wfc  2 (l=1 m= 1 s_z= 0.5)
     state #  32: atom   3 (I  ), wfc  2 (l=1 m= 2 s_z= 0.5)
     state #  33: atom   3 (I  ), wfc  2 (l=1 m= 3 s_z= 0.5)
     state #  34: atom   3 (I  ), wfc  2 (l=1 m= 1 s_z=-0.5)
     state #  35: atom   3 (I  ), wfc  2 (l=1 m= 2 s_z=-0.5)
     state #  36: atom   3 (I  ), wfc  2 (l=1 m= 3 s_z=-0.5)

 k =   0.0000000000  0.0000000000  0.0000000000
==== e(   1) =  -105.99971 eV ====
     psi = 0.996*[#   1]+0.002*[#  23]+0.002*[#  31]
    |psi|^2 = 1.000
==== e(   2) =  -104.62916 eV ====
     psi = 0.996*[#   2]+0.002*[#  26]+0.002*[#  34]
    |psi|^2 = 1.000
==== e(   3) =   -66.47339 eV ====
     psi = 0.999*[#   3]
    |psi|^2 = 1.000
==== e(   4) =   -66.41994 eV ====
     psi = 0.797*[#   4]+0.203*[#   5]
    |psi|^2 = 1.000
==== e(   5) =   -66.41994 eV ====
     psi = 0.797*[#   5]+0.203*[#   4]
    |psi|^2 = 1.000
==== e(   6) =   -64.96404 eV ====
     psi = 0.999*[#   6]
    |psi|^2 = 1.000
==== e(   7) =   -64.95299 eV ====
     psi = 0.797*[#   7]+0.203*[#   8]
    |psi|^2 = 1.000
==== e(   8) =   -64.95299 eV ====
     psi = 0.797*[#   8]+0.203*[#   7]
    |psi|^2 = 1.000
==== e(   9) =   -15.79563 eV ====
     psi = 0.364*[#  21]+0.364*[#  29]+0.261*[#  19]+0.005*[#  23]+0.005*[#  31]
          +0.001*[#   1]
    |psi|^2 = 1.000
==== e(  10) =   -15.57079 eV ====
     psi = 0.361*[#  22]+0.361*[#  30]+0.266*[#  20]+0.005*[#  26]+0.005*[#  34]
          +0.001*[#   2]
    |psi|^2 = 1.000
==== e(  11) =   -14.85348 eV ====
     psi = 0.495*[#  21]+0.495*[#  29]+0.003*[#  23]+0.003*[#  31]
    |psi|^2 = 0.997
==== e(  12) =   -14.59725 eV ====
     psi = 0.495*[#  22]+0.495*[#  30]+0.003*[#  26]+0.003*[#  34]
    |psi|^2 = 0.997
==== e(  13) =    -6.86252 eV ====
     psi = 0.374*[#  23]+0.374*[#  31]+0.100*[#   9]+0.072*[#  19]+0.035*[#  21]
          +0.035*[#  29]+0.002*[#   1]
    |psi|^2 = 0.994
==== e(  14) =    -6.64336 eV ====
     psi = 0.381*[#  26]+0.381*[#  34]+0.078*[#  14]+0.075*[#  20]+0.039*[#  22]
          +0.039*[#  30]+0.003*[#   2]
    |psi|^2 = 0.994
==== e(  15) =    -5.81816 eV ====
     psi = 0.292*[#  13]+0.281*[#  10]+0.094*[#  12]+0.090*[#  11]+0.090*[#  24]
          +0.090*[#  32]+0.029*[#  25]+0.029*[#  33]
    |psi|^2 = 0.995
==== e(  16) =    -5.81816 eV ====
     psi = 0.292*[#  12]+0.281*[#  11]+0.094*[#  13]+0.090*[#  10]+0.090*[#  25]
          +0.090*[#  33]+0.029*[#  24]+0.029*[#  32]
    |psi|^2 = 0.995
==== e(  17) =    -4.57124 eV ====
     psi = 0.323*[#  18]+0.176*[#  27]+0.176*[#  35]+0.106*[#  17]+0.069*[#  15]
          +0.058*[#  28]+0.058*[#  36]+0.023*[#  16]
    |psi|^2 = 0.988
==== e(  18) =    -4.57124 eV ====
     psi = 0.323*[#  17]+0.176*[#  28]+0.176*[#  36]+0.106*[#  18]+0.069*[#  16]
          +0.058*[#  27]+0.058*[#  35]+0.023*[#  15]
    |psi|^2 = 0.988
==== e(  19) =    -4.28568 eV ====
     psi = 0.419*[#  11]+0.295*[#  12]+0.152*[#  10]+0.107*[#  13]+0.006*[#  25]
          +0.006*[#  33]+0.002*[#  24]+0.002*[#  32]
    |psi|^2 = 0.990
==== e(  20) =    -4.28568 eV ====
     psi = 0.419*[#  10]+0.295*[#  13]+0.152*[#  11]+0.107*[#  12]+0.006*[#  24]
          +0.006*[#  32]+0.002*[#  25]+0.002*[#  33]
    |psi|^2 = 0.990
==== e(  21) =    -3.91979 eV ====
     psi = 0.885*[#   9]+0.035*[#  23]+0.035*[#  31]+0.025*[#  19]+0.006*[#  21]
          +0.006*[#  29]
    |psi|^2 = 0.993
==== e(  22) =    -3.79161 eV ====
     psi = 0.495*[#  23]+0.495*[#  31]+0.003*[#  21]+0.003*[#  29]
    |psi|^2 = 0.995
==== e(  23) =    -3.54906 eV ====
     psi = 0.494*[#  26]+0.494*[#  34]+0.003*[#  22]+0.003*[#  30]
    |psi|^2 = 0.994
==== e(  24) =    -3.34536 eV ====
     psi = 0.537*[#  15]+0.207*[#  18]+0.162*[#  16]+0.063*[#  17]+0.007*[#  27]
          +0.007*[#  35]+0.002*[#  28]+0.002*[#  36]
    |psi|^2 = 0.986
==== e(  25) =    -3.34536 eV ====
     psi = 0.537*[#  16]+0.207*[#  17]+0.162*[#  15]+0.063*[#  18]+0.007*[#  28]
          +0.007*[#  36]+0.002*[#  27]+0.002*[#  35]
    |psi|^2 = 0.986
==== e(  26) =    -3.18518 eV ====
     psi = 0.900*[#  14]+0.025*[#  20]+0.025*[#  26]+0.025*[#  34]+0.006*[#  22]
          +0.006*[#  30]
    |psi|^2 = 0.987
==== e(  27) =    -2.88152 eV ====
     psi = 0.369*[#  24]+0.369*[#  32]+0.123*[#  25]+0.123*[#  33]
    |psi|^2 = 0.984
==== e(  28) =    -2.88152 eV ====
     psi = 0.369*[#  25]+0.369*[#  33]+0.123*[#  24]+0.123*[#  32]
    |psi|^2 = 0.984
==== e(  29) =    -2.62921 eV ====
     psi = 0.368*[#  27]+0.368*[#  35]+0.122*[#  28]+0.122*[#  36]
    |psi|^2 = 0.980
==== e(  30) =    -2.62921 eV ====
     psi = 0.368*[#  28]+0.368*[#  36]+0.122*[#  27]+0.122*[#  35]
    |psi|^2 = 0.980
==== e(  31) =    -1.98543 eV ====
     psi = 0.277*[#  25]+0.277*[#  33]+0.155*[#  12]+0.093*[#  24]+0.093*[#  32]
          +0.052*[#  13]+0.038*[#  11]+0.013*[#  10]
    |psi|^2 = 0.999
==== e(  32) =    -1.98543 eV ====
     psi = 0.277*[#  24]+0.277*[#  32]+0.155*[#  13]+0.093*[#  25]+0.093*[#  33]
          +0.052*[#  12]+0.038*[#  10]+0.013*[#  11]
    |psi|^2 = 0.999
==== e(  33) =    -0.89059 eV ====
     psi = 0.216*[#  17]+0.191*[#  28]+0.191*[#  36]+0.145*[#  16]+0.074*[#  18]
          +0.065*[#  27]+0.065*[#  35]+0.049*[#  15]
    |psi|^2 = 0.996
==== e(  34) =    -0.89059 eV ====
     psi = 0.216*[#  18]+0.191*[#  27]+0.191*[#  35]+0.145*[#  15]+0.074*[#  17]
          +0.065*[#  28]+0.065*[#  36]+0.049*[#  16]
    |psi|^2 = 0.996
==== e(  35) =     1.76643 eV ====
     psi = 0.402*[#  19]+0.058*[#  21]+0.058*[#  29]+0.053*[#  23]+0.053*[#  31]
          +0.002*[#   9]
    |psi|^2 = 0.627
==== e(  36) =     1.89902 eV ====
     psi = 0.376*[#  20]+0.055*[#  22]+0.055*[#  30]+0.052*[#  26]+0.052*[#  34]
          +0.002*[#  14]
    |psi|^2 = 0.592
==== e(  37) =     2.50453 eV ====
     psi = 0.001*[#  21]+0.001*[#  29]
    |psi|^2 = 0.004
==== e(  38) =     2.60945 eV ====
     psi = 0.002*[#  22]+0.002*[#  30]+0.001*[#  26]+0.001*[#  34]
    |psi|^2 = 0.005
==== e(  39) =     2.68437 eV ====

    |psi|^2 = 0.000
==== e(  40) =     2.75758 eV ====

    |psi|^2 = 0.000

 k =   0.0166650000  0.0288646267  0.0000000000
==== e(   1) =  -105.99971 eV ====
     psi = 0.996*[#   1]+0.002*[#  23]+0.002*[#  31]
    |psi|^2 = 1.000
==== e(   2) =  -104.62916 eV ====
     psi = 0.996*[#   2]+0.002*[#  26]+0.002*[#  34]
    |psi|^2 = 1.000
==== e(   3) =   -66.47339 eV ====
     psi = 0.999*[#   3]
    |psi|^2 = 1.000
==== e(   4) =   -66.41995 eV ====
     psi = 0.750*[#   5]+0.250*[#   4]
    |psi|^2 = 1.000
==== e(   5) =   -66.41994 eV ====
     psi = 0.750*[#   4]+0.250*[#   5]
    |psi|^2 = 1.000
==== e(   6) =   -64.96404 eV ====
     psi = 0.999*[#   6]
    |psi|^2 = 1.000
==== e(   7) =   -64.95300 eV ====
     psi = 0.750*[#   8]+0.250*[#   7]
    |psi|^2 = 1.000
==== e(   8) =   -64.95300 eV ====
     psi = 0.750*[#   7]+0.250*[#   8]
    |psi|^2 = 1.000
==== e(   9) =   -15.78913 eV ====
     psi = 0.365*[#  21]+0.365*[#  29]+0.259*[#  19]+0.005*[#  23]+0.005*[#  31]
          +0.001*[#   1]
    |psi|^2 = 1.000
==== e(  10) =   -15.56419 eV ====
     psi = 0.361*[#  22]+0.361*[#  30]+0.265*[#  20]+0.005*[#  26]+0.005*[#  34]
          +0.001*[#   2]
    |psi|^2 = 1.000
==== e(  11) =   -14.84989 eV ====
     psi = 0.495*[#  21]+0.495*[#  29]+0.003*[#  23]+0.003*[#  31]
    |psi|^2 = 0.997
==== e(  12) =   -14.59354 eV ====
     psi = 0.495*[#  22]+0.495*[#  30]+0.003*[#  26]+0.003*[#  34]
    |psi|^2 = 0.997
==== e(  13) =    -6.85580 eV ====
     psi = 0.374*[#  23]+0.374*[#  31]+0.100*[#   9]+0.072*[#  19]+0.036*[#  21]
          +0.036*[#  29]+0.002*[#   1]
    |psi|^2 = 0.994
==== e(  14) =    -6.63678 eV ====
     psi = 0.380*[#  26]+0.380*[#  34]+0.077*[#  14]+0.076*[#  20]+0.039*[#  22]
          +0.039*[#  30]+0.003*[#   2]
    |psi|^2 = 0.994
==== e(  15) =    -5.82674 eV ====
     psi = 0.288*[#  12]+0.275*[#  11]+0.096*[#  13]+0.092*[#  10]+0.090*[#  25]
          +0.090*[#  33]+0.030*[#  24]+0.030*[#  32]+0.002*[#  23]+0.002*[#  31]

    |psi|^2 = 0.995
==== e(  16) =    -5.81744 eV ====
     psi = 0.288*[#  13]+0.279*[#  10]+0.096*[#  12]+0.093*[#  11]+0.089*[#  24]
          +0.089*[#  32]+0.030*[#  25]+0.030*[#  33]
    |psi|^2 = 0.995
==== e(  17) =    -4.59724 eV ====
     psi = 0.314*[#  17]+0.175*[#  28]+0.175*[#  36]+0.105*[#  18]+0.067*[#  16]
          +0.058*[#  27]+0.058*[#  35]+0.022*[#  15]+0.007*[#  26]+0.007*[#  34]

    |psi|^2 = 0.988
==== e(  18) =    -4.57057 eV ====
     psi = 0.320*[#  18]+0.176*[#  27]+0.176*[#  35]+0.107*[#  17]+0.069*[#  15]
          +0.059*[#  28]+0.059*[#  36]+0.023*[#  16]
    |psi|^2 = 0.988
==== e(  19) =    -4.29459 eV ====
     psi = 0.429*[#  11]+0.294*[#  12]+0.143*[#  10]+0.098*[#  13]+0.007*[#  25]
          +0.007*[#  33]+0.004*[#  24]+0.004*[#  32]
    |psi|^2 = 0.990
==== e(  20) =    -4.28976 eV ====
     psi = 0.424*[#  10]+0.301*[#  13]+0.141*[#  11]+0.100*[#  12]+0.007*[#  24]
          +0.007*[#  32]+0.004*[#  25]+0.004*[#  33]
    |psi|^2 = 0.990
==== e(  21) =    -3.92870 eV ====
     psi = 0.877*[#   9]+0.033*[#  23]+0.033*[#  31]+0.026*[#  19]+0.007*[#  21]
          +0.007*[#  29]+0.003*[#  25]+0.003*[#  33]+0.001*[#  24]+0.001*[#  32]

    |psi|^2 = 0.992
==== e(  22) =    -3.78013 eV ====
     psi = 0.492*[#  23]+0.492*[#  31]+0.003*[#  12]+0.003*[#  21]+0.003*[#  29]
          +0.001*[#  13]
    |psi|^2 = 0.994
==== e(  23) =    -3.53218 eV ====
     psi = 0.486*[#  26]+0.486*[#  34]+0.007*[#  17]+0.003*[#  28]+0.003*[#  36]
          +0.002*[#  18]+0.002*[#  22]+0.002*[#  30]
    |psi|^2 = 0.993
==== e(  24) =    -3.35831 eV ====
     psi = 0.511*[#  15]+0.195*[#  18]+0.170*[#  16]+0.065*[#  17]+0.010*[#  28]
          +0.010*[#  36]+0.008*[#  27]+0.008*[#  35]+0.006*[#  14]
    |psi|^2 = 0.986
==== e(  25) =    -3.35681 eV ====
     psi = 0.518*[#  16]+0.194*[#  17]+0.173*[#  15]+0.065*[#  18]+0.008*[#  27]
          +0.009*[#  28]+0.008*[#  35]+0.009*[#  36]+0.001*[#  26]+0.001*[#  34]

    |psi|^2 = 0.985
==== e(  26) =    -3.20367 eV ====
     psi = 0.862*[#  14]+0.027*[#  20]+0.022*[#  26]+0.022*[#  34]+0.011*[#  28]
          +0.011*[#  36]+0.007*[#  22]+0.007*[#  30]+0.005*[#  15]+0.004*[#  27]
          +0.004*[#  35]+0.003*[#  18]+0.002*[#  16]
    |psi|^2 = 0.987
==== e(  27) =    -2.91858 eV ====
     psi = 0.358*[#  25]+0.358*[#  33]+0.122*[#  24]+0.122*[#  32]+0.008*[#   9]
          +0.005*[#  13]+0.002*[#  23]+0.002*[#  31]+0.002*[#  12]+0.001*[#  19]
          +0.001*[#  10]
    |psi|^2 = 0.984
==== e(  28) =    -2.88955 eV ====
     psi = 0.364*[#  24]+0.364*[#  32]+0.124*[#  25]+0.124*[#  33]+0.005*[#  12]
          +0.002*[#  13]+0.001*[#  11]
    |psi|^2 = 0.984
==== e(  29) =    -2.64898 eV ====
     psi = 0.344*[#  28]+0.344*[#  36]+0.116*[#  27]+0.116*[#  35]+0.034*[#  14]
          +0.008*[#  18]+0.005*[#  15]+0.004*[#  26]+0.004*[#  34]+0.003*[#  17]
          +0.002*[#  16]
    |psi|^2 = 0.981
==== e(  30) =    -2.63040 eV ====
     psi = 0.360*[#  27]+0.360*[#  35]+0.121*[#  28]+0.121*[#  36]+0.008*[#  17]
          +0.005*[#  16]+0.003*[#  18]+0.002*[#  15]
    |psi|^2 = 0.980
==== e(  31) =    -2.02443 eV ====
     psi = 0.274*[#  25]+0.274*[#  33]+0.155*[#  12]+0.095*[#  24]+0.095*[#  32]
          +0.052*[#  13]+0.039*[#  11]+0.013*[#  10]
    |psi|^2 = 0.997
==== e(  32) =    -1.99161 eV ====
     psi = 0.276*[#  24]+0.276*[#  32]+0.152*[#  13]+0.095*[#  25]+0.095*[#  33]
          +0.051*[#  12]+0.040*[#  10]+0.013*[#  11]
    |psi|^2 = 0.999
==== e(  33) =    -0.92610 eV ====
     psi = 0.218*[#  17]+0.188*[#  28]+0.188*[#  36]+0.148*[#  16]+0.073*[#  18]
          +0.064*[#  27]+0.064*[#  35]+0.049*[#  15]
    |psi|^2 = 0.993
==== e(  34) =    -0.89593 eV ====
     psi = 0.215*[#  18]+0.191*[#  27]+0.191*[#  35]+0.147*[#  15]+0.072*[#  17]
          +0.065*[#  28]+0.065*[#  36]+0.049*[#  16]
    |psi|^2 = 0.996
==== e(  35) =     1.79951 eV ====
     psi = 0.395*[#  19]+0.056*[#  21]+0.056*[#  29]+0.052*[#  23]+0.052*[#  31]
          +0.002*[#  25]+0.002*[#  33]+0.001*[#   9]
    |psi|^2 = 0.618
==== e(  36) =     1.93164 eV ====
     psi = 0.368*[#  20]+0.053*[#  22]+0.053*[#  30]+0.050*[#  26]+0.050*[#  34]
          +0.002*[#  14]+0.002*[#  28]+0.002*[#  36]
    |psi|^2 = 0.582
==== e(  37) =     2.55666 eV ====
     psi = 0.001*[#  21]+0.001*[#  29]
    |psi|^2 = 0.006
==== e(  38) =     2.66524 eV ====
     psi = 0.001*[#  22]+0.001*[#  30]+0.001*[#  26]+0.001*[#  34]
    |psi|^2 = 0.008
==== e(  39) =     2.69360 eV ====

    |psi|^2 = 0.000
==== e(  40) =     2.76695 eV ====

    |psi|^2 = 0.001

 k =   0.0333300000  0.0577292534  0.0000000000
==== e(   1) =  -105.99971 eV ====
     psi = 0.996*[#   1]+0.002*[#  23]+0.002*[#  31]
    |psi|^2 = 1.000
==== e(   2) =  -104.62916 eV ====
     psi = 0.996*[#   2]+0.002*[#  26]+0.002*[#  34]
    |psi|^2 = 1.000
==== e(   3) =   -66.47339 eV ====
     psi = 0.999*[#   3]
    |psi|^2 = 1.000
==== e(   4) =   -66.41996 eV ====
     psi = 0.750*[#   5]+0.250*[#   4]
    |psi|^2 = 1.000
==== e(   5) =   -66.41995 eV ====
     psi = 0.750*[#   4]+0.250*[#   5]
    |psi|^2 = 1.000
==== e(   6) =   -64.96404 eV ====
     psi = 0.999*[#   6]
    |psi|^2 = 1.000
==== e(   7) =   -64.95301 eV ====
     psi = 0.750*[#   8]+0.250*[#   7]
    |psi|^2 = 1.000
==== e(   8) =   -64.95300 eV ====
     psi = 0.750*[#   7]+0.250*[#   8]
    |psi|^2 = 1.000
==== e(   9) =   -15.76972 eV ====
     psi = 0.366*[#  21]+0.366*[#  29]+0.255*[#  19]+0.005*[#  23]+0.005*[#  31]
          +0.001*[#   1]
    |psi|^2 = 1.000
==== e(  10) =   -15.54448 eV ====
     psi = 0.363*[#  22]+0.363*[#  30]+0.260*[#  20]+0.005*[#  26]+0.005*[#  34]
          +0.001*[#   2]
    |psi|^2 = 1.000
==== e(  11) =   -14.83923 eV ====
     psi = 0.494*[#  21]+0.494*[#  29]+0.003*[#  23]+0.003*[#  31]
    |psi|^2 = 0.997
==== e(  12) =   -14.58253 eV ====
     psi = 0.494*[#  22]+0.494*[#  30]+0.003*[#  26]+0.003*[#  34]
    |psi|^2 = 0.997
==== e(  13) =    -6.83584 eV ====
     psi = 0.374*[#  23]+0.374*[#  31]+0.099*[#   9]+0.074*[#  19]+0.036*[#  21]
          +0.036*[#  29]+0.002*[#   1]
    |psi|^2 = 0.994
==== e(  14) =    -6.61727 eV ====
     psi = 0.380*[#  26]+0.380*[#  34]+0.077*[#  20]+0.076*[#  14]+0.039*[#  22]
          +0.039*[#  30]+0.002*[#   2]
    |psi|^2 = 0.994
==== e(  15) =    -5.85168 eV ====
     psi = 0.285*[#  12]+0.265*[#  11]+0.095*[#  13]+0.093*[#  25]+0.093*[#  33]
          +0.088*[#  10]+0.031*[#  24]+0.031*[#  32]+0.007*[#  23]+0.007*[#  31]

    |psi|^2 = 0.995
==== e(  16) =    -5.81545 eV ====
     psi = 0.284*[#  13]+0.283*[#  10]+0.095*[#  12]+0.094*[#  11]+0.089*[#  24]
          +0.089*[#  32]+0.030*[#  25]+0.030*[#  33]
    |psi|^2 = 0.995
==== e(  17) =    -4.66980 eV ====
     psi = 0.295*[#  17]+0.174*[#  28]+0.174*[#  36]+0.098*[#  18]+0.062*[#  16]
          +0.058*[#  27]+0.058*[#  35]+0.023*[#  26]+0.023*[#  34]+0.021*[#  15]

    |psi|^2 = 0.988
==== e(  18) =    -4.56885 eV ====
     psi = 0.314*[#  18]+0.178*[#  27]+0.178*[#  35]+0.105*[#  17]+0.071*[#  15]
          +0.059*[#  28]+0.059*[#  36]+0.024*[#  16]
    |psi|^2 = 0.988
==== e(  19) =    -4.32123 eV ====
     psi = 0.433*[#  11]+0.275*[#  12]+0.144*[#  10]+0.092*[#  13]+0.010*[#  25]
          +0.010*[#  33]+0.009*[#  24]+0.009*[#  32]+0.003*[#  23]+0.003*[#  31]

    |psi|^2 = 0.989
==== e(  20) =    -4.30462 eV ====
     psi = 0.410*[#  10]+0.295*[#  13]+0.137*[#  11]+0.098*[#  12]+0.011*[#  25]
          +0.011*[#  33]+0.011*[#  24]+0.011*[#  32]+0.004*[#   9]
    |psi|^2 = 0.990
==== e(  21) =    -3.95576 eV ====
     psi = 0.846*[#   9]+0.029*[#  23]+0.029*[#  31]+0.029*[#  19]+0.012*[#  25]
          +0.012*[#  33]+0.008*[#  21]+0.008*[#  29]+0.004*[#  24]+0.004*[#  32]
          +0.004*[#  10]+0.004*[#  13]+0.001*[#  11]+0.001*[#  12]
    |psi|^2 = 0.992
==== e(  22) =    -3.74730 eV ====
     psi = 0.484*[#  23]+0.484*[#  31]+0.011*[#  12]+0.004*[#  13]+0.002*[#  21]
          +0.002*[#  29]+0.002*[#  25]+0.002*[#  33]
    |psi|^2 = 0.994
==== e(  23) =    -3.48884 eV ====
     psi = 0.456*[#  26]+0.456*[#  34]+0.032*[#  17]+0.011*[#  18]+0.009*[#  28]
          +0.009*[#  36]+0.008*[#  16]+0.003*[#  27]+0.003*[#  35]+0.003*[#  15]
          +0.002*[#  22]+0.002*[#  30]
    |psi|^2 = 0.991
==== e(  24) =    -3.41645 eV ====
     psi = 0.415*[#  15]+0.147*[#  18]+0.138*[#  16]+0.083*[#  14]+0.051*[#  28]
          +0.051*[#  36]+0.049*[#  17]+0.020*[#  27]+0.020*[#  35]+0.006*[#  20]
          +0.002*[#  22]+0.002*[#  30]
    |psi|^2 = 0.985
==== e(  25) =    -3.38932 eV ====
     psi = 0.494*[#  16]+0.165*[#  15]+0.161*[#  17]+0.054*[#  18]+0.026*[#  27]
          +0.026*[#  35]+0.016*[#  28]+0.016*[#  36]+0.015*[#  26]+0.015*[#  34]

    |psi|^2 = 0.985
==== e(  26) =    -3.24456 eV ====
     psi = 0.690*[#  14]+0.080*[#  15]+0.042*[#  18]+0.027*[#  16]+0.026*[#  20]
          +0.022*[#  28]+0.022*[#  36]+0.015*[#  26]+0.015*[#  34]+0.014*[#  17]
          +0.009*[#  27]+0.009*[#  35]+0.007*[#  22]+0.007*[#  30]
    |psi|^2 = 0.986
==== e(  27) =    -3.01747 eV ====
     psi = 0.329*[#  25]+0.329*[#  33]+0.116*[#  24]+0.116*[#  32]+0.037*[#   9]
          +0.017*[#  13]+0.009*[#  23]+0.009*[#  31]+0.006*[#  12]+0.005*[#  10]
          +0.004*[#  19]+0.002*[#  21]+0.002*[#  29]+0.002*[#  11]
    |psi|^2 = 0.985
==== e(  28) =    -2.91550 eV ====
     psi = 0.348*[#  24]+0.348*[#  32]+0.127*[#  25]+0.127*[#  33]+0.021*[#  12]
          +0.007*[#  13]+0.004*[#  11]+0.001*[#  10]
    |psi|^2 = 0.983
==== e(  29) =    -2.69547 eV ====
     psi = 0.281*[#  28]+0.281*[#  36]+0.130*[#  14]+0.098*[#  27]+0.098*[#  35]
          +0.029*[#  18]+0.018*[#  15]+0.014*[#  26]+0.014*[#  34]+0.010*[#  17]
          +0.006*[#  16]+0.001*[#  20]
    |psi|^2 = 0.983
==== e(  30) =    -2.63530 eV ====
     psi = 0.338*[#  27]+0.338*[#  35]+0.118*[#  28]+0.118*[#  36]+0.034*[#  17]
          +0.017*[#  16]+0.011*[#  18]+0.006*[#  15]
    |psi|^2 = 0.980
==== e(  31) =    -2.13055 eV ====
     psi = 0.262*[#  25]+0.262*[#  33]+0.153*[#  12]+0.103*[#  24]+0.103*[#  32]
          +0.051*[#  13]+0.042*[#  11]+0.014*[#  10]+0.001*[#  21]+0.001*[#  29]

    |psi|^2 = 0.993
==== e(  32) =    -2.01326 eV ====
     psi = 0.272*[#  24]+0.272*[#  32]+0.146*[#  13]+0.101*[#  25]+0.101*[#  33]
          +0.049*[#  12]+0.043*[#  10]+0.014*[#  11]
    |psi|^2 = 0.998
==== e(  33) =    -1.02063 eV ====
     psi = 0.219*[#  17]+0.175*[#  28]+0.175*[#  36]+0.157*[#  16]+0.073*[#  18]
          +0.065*[#  27]+0.065*[#  35]+0.052*[#  15]+0.001*[#  22]+0.001*[#  30]

    |psi|^2 = 0.986
==== e(  34) =    -0.91384 eV ====
     psi = 0.210*[#  18]+0.187*[#  27]+0.187*[#  35]+0.154*[#  15]+0.070*[#  17]
          +0.068*[#  28]+0.068*[#  36]+0.051*[#  16]
    |psi|^2 = 0.995
==== e(  35) =     1.89196 eV ====
     psi = 0.376*[#  19]+0.051*[#  21]+0.051*[#  29]+0.048*[#  23]+0.048*[#  31]
          +0.005*[#  25]+0.005*[#  33]+0.002*[#  24]+0.002*[#  32]
    |psi|^2 = 0.591
==== e(  36) =     2.02286 eV ====
     psi = 0.347*[#  20]+0.048*[#  22]+0.048*[#  30]+0.046*[#  26]+0.046*[#  34]
          +0.005*[#  28]+0.005*[#  36]+0.002*[#  27]+0.002*[#  35]+0.001*[#  14]

    |psi|^2 = 0.551
==== e(  37) =     2.68755 eV ====
     psi = 0.002*[#  25]+0.002*[#  33]
    |psi|^2 = 0.008
==== e(  38) =     2.73512 eV ====

    |psi|^2 = 0.004
==== e(  39) =     2.78376 eV ====

    |psi|^2 = 0.004
==== e(  40) =     2.82994 eV ====
     psi = 0.002*[#  28]+0.002*[#  36]
    |psi|^2 = 0.012

 k =   0.0499950000  0.0865938801  0.0000000000
==== e(   1) =  -105.99971 eV ====
     psi = 0.995*[#   1]+0.002*[#  23]+0.002*[#  31]
    |psi|^2 = 1.000
==== e(   2) =  -104.62916 eV ====
     psi = 0.995*[#   2]+0.002*[#  26]+0.002*[#  34]
    |psi|^2 = 1.000
==== e(   3) =   -66.47339 eV ====
     psi = 0.999*[#   3]
    |psi|^2 = 1.000
==== e(   4) =   -66.41998 eV ====
     psi = 0.750*[#   5]+0.250*[#   4]
    |psi|^2 = 1.000
==== e(   5) =   -66.41995 eV ====
     psi = 0.750*[#   4]+0.250*[#   5]
    |psi|^2 = 1.000
==== e(   6) =   -64.96404 eV ====
     psi = 0.999*[#   6]
    |psi|^2 = 1.000
==== e(   7) =   -64.95303 eV ====
     psi = 0.750*[#   8]+0.250*[#   7]
    |psi|^2 = 1.000
==== e(   8) =   -64.95300 eV ====
     psi = 0.750*[#   7]+0.250*[#   8]
    |psi|^2 = 1.000
==== e(   9) =   -15.73767 eV ====
     psi = 0.369*[#  21]+0.369*[#  29]+0.248*[#  19]+0.005*[#  23]+0.005*[#  31]
          +0.001*[#  25]+0.001*[#  33]+0.001*[#   1]
    |psi|^2 = 1.000
==== e(  10) =   -15.51194 eV ====
     psi = 0.366*[#  22]+0.366*[#  30]+0.253*[#  20]+0.005*[#  26]+0.005*[#  34]
          +0.001*[#  28]+0.001*[#  36]+0.001*[#   2]
    |psi|^2 = 1.000
==== e(  11) =   -14.82181 eV ====
     psi = 0.493*[#  21]+0.493*[#  29]+0.003*[#  23]+0.003*[#  31]+0.001*[#  25]
          +0.001*[#  33]
    |psi|^2 = 0.997
==== e(  12) =   -14.56454 eV ====
     psi = 0.493*[#  22]+0.493*[#  30]+0.003*[#  26]+0.003*[#  34]+0.001*[#  28]
          +0.001*[#  36]
    |psi|^2 = 0.997
==== e(  13) =    -6.80336 eV ====
     psi = 0.372*[#  23]+0.372*[#  31]+0.097*[#   9]+0.076*[#  19]+0.036*[#  21]
          +0.036*[#  29]+0.002*[#   1]
    |psi|^2 = 0.994
==== e(  14) =    -6.58560 eV ====
     psi = 0.378*[#  26]+0.378*[#  34]+0.080*[#  20]+0.075*[#  14]+0.039*[#  22]
          +0.039*[#  30]+0.002*[#   2]
    |psi|^2 = 0.994
==== e(  15) =    -5.89088 eV ====
     psi = 0.279*[#  12]+0.249*[#  11]+0.097*[#  25]+0.097*[#  33]+0.093*[#  13]
          +0.083*[#  10]+0.033*[#  24]+0.033*[#  32]+0.015*[#  23]+0.015*[#  31]

    |psi|^2 = 0.994
==== e(  16) =    -5.81265 eV ====
     psi = 0.288*[#  10]+0.278*[#  13]+0.096*[#  11]+0.093*[#  12]+0.090*[#  24]
          +0.090*[#  32]+0.031*[#  25]+0.031*[#  33]
    |psi|^2 = 0.995
==== e(  17) =    -4.77728 eV ====
     psi = 0.272*[#  17]+0.176*[#  28]+0.176*[#  36]+0.091*[#  18]+0.059*[#  27]
          +0.059*[#  35]+0.055*[#  16]+0.040*[#  26]+0.040*[#  34]+0.018*[#  15]

    |psi|^2 = 0.988
==== e(  18) =    -4.56696 eV ====
     psi = 0.304*[#  18]+0.182*[#  27]+0.182*[#  35]+0.101*[#  17]+0.073*[#  15]
          +0.061*[#  28]+0.061*[#  36]+0.024*[#  16]
    |psi|^2 = 0.988
==== e(  19) =    -4.36557 eV ====
     psi = 0.439*[#  11]+0.245*[#  12]+0.146*[#  10]+0.082*[#  13]+0.018*[#  24]
          +0.018*[#  32]+0.014*[#  25]+0.014*[#  33]+0.005*[#  23]+0.005*[#  31]

    |psi|^2 = 0.988
==== e(  20) =    -4.34014 eV ====
     psi = 0.371*[#  10]+0.274*[#  13]+0.124*[#  11]+0.091*[#  12]+0.030*[#  25]
          +0.030*[#  33]+0.026*[#   9]+0.019*[#  24]+0.019*[#  32]+0.003*[#  19]
          +0.001*[#  21]+0.001*[#  29]
    |psi|^2 = 0.989
==== e(  21) =    -3.99932 eV ====
     psi = 0.769*[#   9]+0.032*[#  19]+0.025*[#  10]+0.025*[#  25]+0.025*[#  33]
          +0.023*[#  23]+0.023*[#  31]+0.022*[#  13]+0.009*[#  21]+0.009*[#  29]
          +0.008*[#  11]+0.008*[#  24]+0.008*[#  32]+0.007*[#  12]
    |psi|^2 = 0.991
==== e(  22) =    -3.69748 eV ====
     psi = 0.474*[#  23]+0.474*[#  31]+0.020*[#  12]+0.007*[#  13]+0.005*[#  25]
          +0.005*[#  33]+0.002*[#  21]+0.002*[#  29]+0.002*[#  24]+0.002*[#  32]

    |psi|^2 = 0.993
==== e(  23) =    -3.55711 eV ====
     psi = 0.262*[#  15]+0.178*[#  14]+0.122*[#  28]+0.122*[#  36]+0.087*[#  16]
          +0.072*[#  18]+0.041*[#  27]+0.041*[#  35]+0.024*[#  17]+0.019*[#  20]
          +0.006*[#  22]+0.006*[#  30]
    |psi|^2 = 0.983
==== e(  24) =    -3.46264 eV ====
     psi = 0.323*[#  16]+0.163*[#  17]+0.124*[#  26]+0.124*[#  34]+0.108*[#  15]
          +0.054*[#  18]+0.033*[#  27]+0.033*[#  35]+0.012*[#  28]+0.012*[#  36]

    |psi|^2 = 0.985
==== e(  25) =    -3.41124 eV ====
     psi = 0.328*[#  26]+0.328*[#  34]+0.155*[#  16]+0.052*[#  15]+0.030*[#  28]
          +0.030*[#  36]+0.024*[#  27]+0.024*[#  35]+0.010*[#  17]+0.003*[#  18]
          +0.001*[#  22]+0.001*[#  30]
    |psi|^2 = 0.988
==== e(  26) =    -3.27464 eV ====
     psi = 0.470*[#  14]+0.206*[#  15]+0.110*[#  18]+0.069*[#  16]+0.037*[#  17]
          +0.021*[#  20]+0.014*[#  28]+0.014*[#  36]+0.009*[#  26]+0.009*[#  34]
          +0.008*[#  27]+0.008*[#  35]+0.005*[#  22]+0.005*[#  30]
    |psi|^2 = 0.985
==== e(  27) =    -3.14838 eV ====
     psi = 0.282*[#  25]+0.282*[#  33]+0.105*[#  24]+0.105*[#  32]+0.094*[#   9]
          +0.034*[#  13]+0.020*[#  23]+0.020*[#  31]+0.013*[#  10]+0.011*[#  12]
          +0.007*[#  19]+0.004*[#  11]+0.003*[#  21]+0.003*[#  29]
    |psi|^2 = 0.986
==== e(  28) =    -2.96549 eV ====
     psi = 0.315*[#  24]+0.315*[#  32]+0.134*[#  25]+0.134*[#  33]+0.056*[#  12]
          +0.019*[#  13]+0.007*[#  11]+0.002*[#  10]
    |psi|^2 = 0.982
==== e(  29) =    -2.74462 eV ====
     psi = 0.258*[#  14]+0.204*[#  28]+0.204*[#  36]+0.075*[#  27]+0.075*[#  35]
          +0.053*[#  18]+0.035*[#  15]+0.025*[#  26]+0.025*[#  34]+0.018*[#  17]
          +0.012*[#  16]+0.001*[#  20]+0.001*[#  22]+0.001*[#  30]
    |psi|^2 = 0.986
==== e(  30) =    -2.64735 eV ====
     psi = 0.306*[#  27]+0.306*[#  35]+0.113*[#  28]+0.113*[#  36]+0.075*[#  17]
          +0.031*[#  16]+0.025*[#  18]+0.010*[#  15]
    |psi|^2 = 0.980
==== e(  31) =    -2.27528 eV ====
     psi = 0.240*[#  25]+0.240*[#  33]+0.144*[#  12]+0.124*[#  24]+0.124*[#  32]
          +0.048*[#  11]+0.048*[#  13]+0.016*[#  10]+0.002*[#  21]+0.002*[#  29]

    |psi|^2 = 0.989
==== e(  32) =    -2.05597 eV ====
     psi = 0.266*[#  24]+0.266*[#  32]+0.138*[#  13]+0.106*[#  25]+0.106*[#  33]
          +0.049*[#  10]+0.046*[#  12]+0.016*[#  11]
    |psi|^2 = 0.997
==== e(  33) =    -1.14562 eV ====
     psi = 0.219*[#  17]+0.173*[#  16]+0.157*[#  28]+0.157*[#  36]+0.073*[#  18]
          +0.068*[#  27]+0.068*[#  35]+0.058*[#  15]+0.003*[#  22]+0.003*[#  30]
          +0.002*[#  26]+0.002*[#  34]
    |psi|^2 = 0.981
==== e(  34) =    -0.94800 eV ====
     psi = 0.202*[#  18]+0.181*[#  27]+0.181*[#  35]+0.163*[#  15]+0.070*[#  28]
          +0.070*[#  36]+0.067*[#  17]+0.054*[#  16]
    |psi|^2 = 0.993
==== e(  35) =     2.02718 eV ====
     psi = 0.349*[#  19]+0.044*[#  21]+0.044*[#  29]+0.043*[#  23]+0.043*[#  31]
          +0.010*[#  25]+0.010*[#  33]+0.003*[#  24]+0.003*[#  32]
    |psi|^2 = 0.551
==== e(  36) =     2.15647 eV ====
     psi = 0.317*[#  20]+0.041*[#  22]+0.041*[#  30]+0.041*[#  26]+0.041*[#  34]
          +0.009*[#  28]+0.009*[#  36]+0.003*[#  27]+0.003*[#  35]
    |psi|^2 = 0.506
==== e(  37) =     2.74984 eV ====

    |psi|^2 = 0.002
==== e(  38) =     2.83026 eV ====

    |psi|^2 = 0.002
==== e(  39) =     2.92663 eV ====
     psi = 0.003*[#  25]+0.003*[#  33]+0.001*[#  24]+0.001*[#  32]
    |psi|^2 = 0.014
==== e(  40) =     3.04732 eV ====
     psi = 0.005*[#  28]+0.005*[#  36]+0.002*[#  27]+0.002*[#  35]+0.001*[#  16]

    |psi|^2 = 0.020

 k =   0.0666600000  0.1154585068  0.0000000000
==== e(   1) =  -105.99971 eV ====
     psi = 0.995*[#   1]+0.002*[#  23]+0.002*[#  31]
    |psi|^2 = 1.000
==== e(   2) =  -104.62916 eV ====
     psi = 0.995*[#   2]+0.002*[#  26]+0.002*[#  34]
    |psi|^2 = 1.000
==== e(   3) =   -66.47338 eV ====
     psi = 0.999*[#   3]
    |psi|^2 = 1.000
==== e(   4) =   -66.42000 eV ====
     psi = 0.750*[#   5]+0.250*[#   4]
    |psi|^2 = 1.000
==== e(   5) =   -66.41996 eV ====
     psi = 0.750*[#   4]+0.250*[#   5]
    |psi|^2 = 1.000
==== e(   6) =   -64.96403 eV ====
     psi = 0.999*[#   6]
    |psi|^2 = 1.000
==== e(   7) =   -64.95306 eV ====
     psi = 0.750*[#   8]+0.250*[#   7]
    |psi|^2 = 1.000
==== e(   8) =   -64.95301 eV ====
     psi = 0.750*[#   7]+0.250*[#   8]
    |psi|^2 = 1.000
==== e(   9) =   -15.69346 eV ====
     psi = 0.373*[#  21]+0.373*[#  29]+0.238*[#  19]+0.005*[#  23]+0.005*[#  31]
          +0.002*[#  25]+0.002*[#  33]
    |psi|^2 = 1.000
==== e(  10) =   -15.46703 eV ====
     psi = 0.370*[#  22]+0.370*[#  30]+0.243*[#  20]+0.005*[#  26]+0.005*[#  34]
          +0.002*[#  28]+0.002*[#  36]
    |psi|^2 = 1.000
==== e(  11) =   -14.79817 eV ====
     psi = 0.492*[#  21]+0.492*[#  29]+0.002*[#  23]+0.002*[#  31]+0.002*[#  25]
          +0.002*[#  33]+0.002*[#  11]
    |psi|^2 = 0.997
==== e(  12) =   -14.54011 eV ====
     psi = 0.492*[#  22]+0.492*[#  30]+0.002*[#  26]+0.002*[#  34]+0.002*[#  28]
          +0.002*[#  36]+0.001*[#  16]
    |psi|^2 = 0.997
==== e(  13) =    -6.75966 eV ====
     psi = 0.371*[#  23]+0.371*[#  31]+0.095*[#   9]+0.080*[#  19]+0.036*[#  21]
          +0.036*[#  29]+0.002*[#   1]+0.001*[#  25]+0.001*[#  33]
    |psi|^2 = 0.994
==== e(  14) =    -6.54321 eV ====
     psi = 0.376*[#  26]+0.376*[#  34]+0.084*[#  20]+0.072*[#  14]+0.040*[#  22]
          +0.040*[#  30]+0.002*[#   2]+0.002*[#  28]+0.002*[#  36]
    |psi|^2 = 0.994
==== e(  15) =    -5.94138 eV ====
     psi = 0.272*[#  12]+0.229*[#  11]+0.103*[#  25]+0.103*[#  33]+0.091*[#  13]
          +0.076*[#  10]+0.035*[#  24]+0.035*[#  32]+0.024*[#  23]+0.024*[#  31]

    |psi|^2 = 0.994
==== e(  16) =    -5.80987 eV ====
     psi = 0.296*[#  10]+0.268*[#  13]+0.099*[#  11]+0.090*[#  24]+0.090*[#  32]
          +0.089*[#  12]+0.032*[#  25]+0.032*[#  33]
    |psi|^2 = 0.995
==== e(  17) =    -4.90857 eV ====
     psi = 0.248*[#  17]+0.182*[#  28]+0.182*[#  36]+0.083*[#  18]+0.061*[#  27]
          +0.061*[#  35]+0.053*[#  26]+0.053*[#  34]+0.046*[#  16]+0.015*[#  15]
          +0.001*[#  22]+0.001*[#  30]
    |psi|^2 = 0.987
==== e(  18) =    -4.56650 eV ====
     psi = 0.290*[#  18]+0.187*[#  27]+0.187*[#  35]+0.097*[#  17]+0.075*[#  15]
          +0.062*[#  28]+0.062*[#  36]+0.025*[#  16]
    |psi|^2 = 0.987
==== e(  19) =    -4.42805 eV ====
     psi = 0.445*[#  11]+0.208*[#  12]+0.148*[#  10]+0.069*[#  13]+0.031*[#  24]
          +0.031*[#  32]+0.021*[#  25]+0.021*[#  33]+0.006*[#  23]+0.006*[#  31]

    |psi|^2 = 0.987
==== e(  20) =    -4.41667 eV ====
     psi = 0.289*[#  10]+0.220*[#  13]+0.096*[#  11]+0.082*[#   9]+0.073*[#  12]
          +0.069*[#  25]+0.069*[#  33]+0.035*[#  24]+0.035*[#  32]+0.011*[#  19]
          +0.004*[#  21]+0.004*[#  29]
    |psi|^2 = 0.988
==== e(  21) =    -4.04823 eV ====
     psi = 0.627*[#   9]+0.081*[#  10]+0.073*[#  13]+0.032*[#  19]+0.029*[#  25]
          +0.029*[#  33]+0.027*[#  11]+0.024*[#  12]+0.015*[#  23]+0.015*[#  31]
          +0.010*[#  24]+0.010*[#  32]+0.009*[#  21]+0.009*[#  29]
    |psi|^2 = 0.990
==== e(  22) =    -3.77153 eV ====
     psi = 0.182*[#  14]+0.178*[#  28]+0.178*[#  36]+0.174*[#  15]+0.059*[#  27]
          +0.059*[#  35]+0.058*[#  16]+0.030*[#  20]+0.030*[#  18]+0.011*[#  22]
          +0.011*[#  30]+0.010*[#  17]
    |psi|^2 = 0.982
==== e(  23) =    -3.63730 eV ====
     psi = 0.462*[#  23]+0.462*[#  31]+0.025*[#  12]+0.011*[#  25]+0.011*[#  33]
          +0.008*[#  13]+0.004*[#  24]+0.004*[#  32]+0.002*[#  21]+0.002*[#  29]

    |psi|^2 = 0.992
==== e(  24) =    -3.52778 eV ====
     psi = 0.433*[#  16]+0.144*[#  15]+0.140*[#  17]+0.073*[#  27]+0.073*[#  35]
          +0.047*[#  18]+0.025*[#  28]+0.025*[#  36]+0.012*[#  26]+0.012*[#  34]

    |psi|^2 = 0.983
==== e(  25) =    -3.36075 eV ====
     psi = 0.424*[#  26]+0.424*[#  34]+0.038*[#  28]+0.038*[#  36]+0.018*[#  16]
          +0.016*[#  27]+0.016*[#  35]+0.006*[#  15]+0.004*[#  17]+0.001*[#  18]

    |psi|^2 = 0.987
==== e(  26) =    -3.29130 eV ====
     psi = 0.355*[#  14]+0.267*[#  15]+0.155*[#  18]+0.089*[#  16]+0.052*[#  17]
          +0.017*[#  20]+0.008*[#  28]+0.008*[#  36]+0.007*[#  26]+0.007*[#  34]
          +0.007*[#  27]+0.007*[#  35]+0.004*[#  22]+0.004*[#  30]
    |psi|^2 = 0.986
==== e(  27) =    -3.27834 eV ====
     psi = 0.223*[#  25]+0.223*[#  33]+0.184*[#   9]+0.088*[#  24]+0.088*[#  32]
          +0.053*[#  13]+0.033*[#  23]+0.033*[#  31]+0.024*[#  10]+0.018*[#  12]
          +0.008*[#  11]+0.007*[#  19]+0.004*[#  21]+0.004*[#  29]
    |psi|^2 = 0.988
==== e(  28) =    -3.04942 eV ====
     psi = 0.260*[#  24]+0.260*[#  32]+0.145*[#  25]+0.145*[#  33]+0.118*[#  12]
          +0.039*[#  13]+0.009*[#  11]+0.003*[#  10]
    |psi|^2 = 0.981
==== e(  29) =    -2.78413 eV ====
     psi = 0.373*[#  14]+0.140*[#  28]+0.140*[#  36]+0.072*[#  18]+0.055*[#  27]
          +0.055*[#  35]+0.045*[#  15]+0.033*[#  26]+0.033*[#  34]+0.024*[#  17]
          +0.015*[#  16]+0.001*[#  20]+0.001*[#  22]+0.001*[#  30]
    |psi|^2 = 0.988
==== e(  30) =    -2.67027 eV ====
     psi = 0.266*[#  27]+0.266*[#  35]+0.132*[#  17]+0.107*[#  28]+0.107*[#  36]
          +0.044*[#  18]+0.043*[#  16]+0.014*[#  15]
    |psi|^2 = 0.981
==== e(  31) =    -2.42167 eV ====
     psi = 0.208*[#  25]+0.208*[#  33]+0.161*[#  24]+0.161*[#  32]+0.120*[#  12]
          +0.059*[#  11]+0.040*[#  13]+0.020*[#  10]+0.004*[#  21]+0.004*[#  29]
          +0.002*[#  23]+0.002*[#  31]
    |psi|^2 = 0.988
==== e(  32) =    -2.12282 eV ====
     psi = 0.260*[#  24]+0.260*[#  32]+0.130*[#  13]+0.111*[#  25]+0.111*[#  33]
          +0.056*[#  10]+0.043*[#  12]+0.019*[#  11]+0.001*[#   9]+0.001*[#  23]
          +0.001*[#  31]
    |psi|^2 = 0.995
==== e(  33) =    -1.26980 eV ====
     psi = 0.215*[#  17]+0.195*[#  16]+0.134*[#  28]+0.134*[#  36]+0.073*[#  27]
          +0.073*[#  35]+0.072*[#  18]+0.065*[#  15]+0.005*[#  26]+0.005*[#  34]
          +0.004*[#  22]+0.004*[#  30]
    |psi|^2 = 0.980
==== e(  34) =    -1.00060 eV ====
     psi = 0.194*[#  18]+0.177*[#  15]+0.174*[#  27]+0.174*[#  35]+0.072*[#  28]
          +0.072*[#  36]+0.065*[#  17]+0.059*[#  16]
    |psi|^2 = 0.989
==== e(  35) =     2.18677 eV ====
     psi = 0.321*[#  19]+0.038*[#  23]+0.038*[#  31]+0.037*[#  21]+0.037*[#  29]
          +0.013*[#  25]+0.013*[#  33]+0.004*[#  24]+0.004*[#  32]
    |psi|^2 = 0.508
==== e(  36) =     2.31469 eV ====
     psi = 0.284*[#  20]+0.035*[#  26]+0.035*[#  34]+0.033*[#  22]+0.033*[#  30]
          +0.012*[#  28]+0.012*[#  36]+0.004*[#  27]+0.004*[#  35]
    |psi|^2 = 0.455
==== e(  37) =     2.80438 eV ====

    |psi|^2 = 0.002
==== e(  38) =     2.88675 eV ====

    |psi|^2 = 0.002
==== e(  39) =     3.15945 eV ====
     psi = 0.187*[#  19]+0.021*[#  21]+0.021*[#  29]+0.019*[#  23]+0.019*[#  31]
          +0.014*[#  25]+0.014*[#  33]+0.006*[#  24]+0.006*[#  32]+0.004*[#   9]

    |psi|^2 = 0.312
==== e(  40) =     3.17143 eV ====
     psi = 0.004*[#  25]+0.004*[#  33]+0.002*[#  24]+0.002*[#  32]
    |psi|^2 = 0.016

 k =   0.0833250000  0.1443231335  0.0000000000
==== e(   1) =  -105.99971 eV ====
     psi = 0.995*[#   1]+0.002*[#  23]+0.002*[#  31]
    |psi|^2 = 1.000
==== e(   2) =  -104.62916 eV ====
     psi = 0.995*[#   2]+0.002*[#  26]+0.002*[#  34]
    |psi|^2 = 1.000
==== e(   3) =   -66.47338 eV ====
     psi = 0.999*[#   3]
    |psi|^2 = 1.000
==== e(   4) =   -66.42003 eV ====
     psi = 0.750*[#   5]+0.250*[#   4]
    |psi|^2 = 1.000
==== e(   5) =   -66.41997 eV ====
     psi = 0.750*[#   4]+0.250*[#   5]
    |psi|^2 = 1.000
==== e(   6) =   -64.96402 eV ====
     psi = 0.999*[#   6]
    |psi|^2 = 1.000
==== e(   7) =   -64.95310 eV ====
     psi = 0.749*[#   8]+0.250*[#   7]
    |psi|^2 = 1.000
==== e(   8) =   -64.95302 eV ====
     psi = 0.750*[#   7]+0.250*[#   8]
    |psi|^2 = 1.000
==== e(   9) =   -15.63774 eV ====
     psi = 0.378*[#  21]+0.378*[#  29]+0.226*[#  19]+0.005*[#  23]+0.005*[#  31]
          +0.003*[#  25]+0.003*[#  33]
    |psi|^2 = 1.000
==== e(  10) =   -15.41040 eV ====
     psi = 0.375*[#  22]+0.375*[#  30]+0.231*[#  20]+0.005*[#  26]+0.005*[#  34]
          +0.003*[#  28]+0.003*[#  36]
    |psi|^2 = 1.000
==== e(  11) =   -14.76904 eV ====
     psi = 0.491*[#  21]+0.491*[#  29]+0.003*[#  11]+0.002*[#  25]+0.002*[#  33]
          +0.002*[#  23]+0.002*[#  31]+0.001*[#  12]
    |psi|^2 = 0.998
==== e(  12) =   -14.51000 eV ====
     psi = 0.491*[#  22]+0.491*[#  30]+0.002*[#  28]+0.002*[#  36]+0.002*[#  16]
          +0.002*[#  26]+0.002*[#  34]
    |psi|^2 = 0.997
==== e(  13) =    -6.70695 eV ====
     psi = 0.367*[#  23]+0.367*[#  31]+0.090*[#   9]+0.085*[#  19]+0.037*[#  21]
          +0.037*[#  29]+0.003*[#  25]+0.003*[#  33]+0.002*[#   1]+0.001*[#  24]
          +0.001*[#  32]
    |psi|^2 = 0.994
==== e(  14) =    -6.49245 eV ====
     psi = 0.372*[#  26]+0.372*[#  34]+0.089*[#  20]+0.068*[#  14]+0.041*[#  22]
          +0.041*[#  30]+0.003*[#  28]+0.003*[#  36]+0.002*[#   2]+0.001*[#  27]
          +0.001*[#  35]
    |psi|^2 = 0.994
==== e(  15) =    -5.99997 eV ====
     psi = 0.264*[#  12]+0.206*[#  11]+0.112*[#  25]+0.112*[#  33]+0.088*[#  13]
          +0.069*[#  10]+0.038*[#  24]+0.038*[#  32]+0.033*[#  23]+0.033*[#  31]

    |psi|^2 = 0.993
==== e(  16) =    -5.80836 eV ====
     psi = 0.306*[#  10]+0.255*[#  13]+0.102*[#  11]+0.090*[#  24]+0.090*[#  32]
          +0.085*[#  12]+0.033*[#  25]+0.033*[#  33]
    |psi|^2 = 0.995
==== e(  17) =    -5.05536 eV ====
     psi = 0.225*[#  17]+0.191*[#  28]+0.191*[#  36]+0.075*[#  18]+0.064*[#  27]
          +0.064*[#  35]+0.062*[#  26]+0.062*[#  34]+0.037*[#  16]+0.012*[#  15]
          +0.001*[#  22]+0.001*[#  30]
    |psi|^2 = 0.986
==== e(  18) =    -4.57012 eV ====
     psi = 0.271*[#  18]+0.195*[#  27]+0.195*[#  35]+0.090*[#  17]+0.076*[#  15]
          +0.065*[#  28]+0.065*[#  36]+0.025*[#  16]+0.001*[#  14]+0.001*[#  20]

    |psi|^2 = 0.986
==== e(  19) =    -4.55304 eV ====
     psi = 0.185*[#  10]+0.150*[#  13]+0.142*[#   9]+0.120*[#  25]+0.120*[#  33]
          +0.062*[#  11]+0.058*[#  24]+0.058*[#  32]+0.050*[#  12]+0.024*[#  19]
          +0.008*[#  21]+0.008*[#  29]
    |psi|^2 = 0.986
==== e(  20) =    -4.50942 eV ====
     psi = 0.450*[#  11]+0.164*[#  12]+0.150*[#  10]+0.055*[#  13]+0.047*[#  24]
          +0.047*[#  32]+0.030*[#  25]+0.030*[#  33]+0.005*[#  23]+0.005*[#  31]
          +0.001*[#  21]+0.001*[#  29]
    |psi|^2 = 0.986
==== e(  21) =    -4.08417 eV ====
     psi = 0.464*[#   9]+0.157*[#  10]+0.147*[#  13]+0.052*[#  11]+0.049*[#  12]
          +0.027*[#  19]+0.022*[#  25]+0.022*[#  33]+0.010*[#  23]+0.010*[#  31]
          +0.007*[#  21]+0.007*[#  29]+0.007*[#  24]+0.007*[#  32]
    |psi|^2 = 0.991
==== e(  22) =    -4.02790 eV ====
     psi = 0.210*[#  28]+0.210*[#  36]+0.158*[#  14]+0.133*[#  15]+0.070*[#  27]
          +0.070*[#  35]+0.044*[#  16]+0.038*[#  20]+0.013*[#  22]+0.013*[#  30]
          +0.009*[#  18]+0.004*[#  26]+0.004*[#  34]+0.003*[#  17]
    |psi|^2 = 0.982
==== e(  23) =    -3.61674 eV ====
     psi = 0.419*[#  16]+0.140*[#  15]+0.104*[#  17]+0.102*[#  27]+0.102*[#  35]
          +0.035*[#  18]+0.034*[#  28]+0.034*[#  36]+0.005*[#  26]+0.005*[#  34]

    |psi|^2 = 0.982
==== e(  24) =    -3.57651 eV ====
     psi = 0.449*[#  23]+0.449*[#  31]+0.022*[#  25]+0.022*[#  33]+0.021*[#  12]
          +0.009*[#  24]+0.009*[#  32]+0.007*[#  13]+0.001*[#  21]+0.001*[#  29]

    |psi|^2 = 0.990
==== e(  25) =    -3.38596 eV ====
     psi = 0.291*[#   9]+0.162*[#  25]+0.162*[#  33]+0.070*[#  13]+0.070*[#  24]
          +0.070*[#  32]+0.043*[#  23]+0.043*[#  31]+0.033*[#  10]+0.023*[#  12]
          +0.011*[#  11]+0.005*[#  19]+0.003*[#  21]+0.003*[#  29]
    |psi|^2 = 0.990
==== e(  26) =    -3.31636 eV ====
     psi = 0.416*[#  26]+0.416*[#  34]+0.052*[#  28]+0.052*[#  36]+0.019*[#  27]
          +0.019*[#  35]+0.005*[#  16]+0.003*[#  17]+0.002*[#  15]
    |psi|^2 = 0.985
==== e(  27) =    -3.30296 eV ====
     psi = 0.297*[#  14]+0.287*[#  15]+0.189*[#  18]+0.096*[#  16]+0.063*[#  17]
          +0.015*[#  20]+0.006*[#  26]+0.006*[#  34]+0.005*[#  27]+0.005*[#  35]
          +0.004*[#  28]+0.004*[#  36]+0.004*[#  22]+0.004*[#  30]
    |psi|^2 = 0.986
==== e(  28) =    -3.17215 eV ====
     psi = 0.207*[#  12]+0.192*[#  24]+0.192*[#  32]+0.153*[#  25]+0.153*[#  33]
          +0.069*[#  13]+0.009*[#  11]+0.003*[#  10]+0.002*[#  21]+0.002*[#  29]

    |psi|^2 = 0.982
==== e(  29) =    -2.81494 eV ====
     psi = 0.458*[#  14]+0.096*[#  28]+0.096*[#  36]+0.086*[#  18]+0.049*[#  15]
          +0.041*[#  27]+0.041*[#  35]+0.038*[#  26]+0.038*[#  34]+0.029*[#  17]
          +0.016*[#  16]
    |psi|^2 = 0.990
==== e(  30) =    -2.70494 eV ====
     psi = 0.224*[#  27]+0.224*[#  35]+0.202*[#  17]+0.098*[#  28]+0.098*[#  36]
          +0.067*[#  18]+0.051*[#  16]+0.017*[#  15]
    |psi|^2 = 0.982
==== e(  31) =    -2.53792 eV ====
     psi = 0.205*[#  24]+0.205*[#  32]+0.170*[#  25]+0.170*[#  33]+0.086*[#  12]
          +0.076*[#  11]+0.029*[#  13]+0.025*[#  10]+0.008*[#  23]+0.008*[#  31]
          +0.004*[#  21]+0.004*[#  29]
    |psi|^2 = 0.989
==== e(  32) =    -2.21333 eV ====
     psi = 0.253*[#  24]+0.253*[#  32]+0.122*[#  13]+0.115*[#  25]+0.115*[#  33]
          +0.065*[#  10]+0.041*[#  12]+0.022*[#  11]+0.002*[#  23]+0.002*[#  31]
          +0.002*[#   9]
    |psi|^2 = 0.992
==== e(  33) =    -1.36867 eV ====
     psi = 0.222*[#  16]+0.204*[#  17]+0.110*[#  28]+0.110*[#  36]+0.079*[#  27]
          +0.079*[#  35]+0.074*[#  15]+0.068*[#  18]+0.012*[#  26]+0.012*[#  34]
          +0.006*[#  22]+0.006*[#  30]
    |psi|^2 = 0.981
==== e(  34) =    -1.07095 eV ====
     psi = 0.194*[#  15]+0.185*[#  18]+0.164*[#  27]+0.164*[#  35]+0.074*[#  28]
          +0.074*[#  36]+0.065*[#  16]+0.062*[#  17]+0.001*[#  26]+0.001*[#  34]

    |psi|^2 = 0.985
==== e(  35) =     2.35654 eV ====
     psi = 0.303*[#  19]+0.034*[#  23]+0.034*[#  31]+0.031*[#  21]+0.031*[#  29]
          +0.016*[#  25]+0.016*[#  33]+0.006*[#  24]+0.006*[#  32]
    |psi|^2 = 0.479
==== e(  36) =     2.48467 eV ====
     psi = 0.257*[#  20]+0.030*[#  26]+0.030*[#  34]+0.027*[#  22]+0.027*[#  30]
          +0.015*[#  28]+0.015*[#  36]+0.005*[#  27]+0.005*[#  35]
    |psi|^2 = 0.411
==== e(  37) =     2.86839 eV ====

    |psi|^2 = 0.003
==== e(  38) =     2.95481 eV ====
     psi = 0.001*[#  17]
    |psi|^2 = 0.003
==== e(  39) =     3.08561 eV ====
     psi = 0.186*[#  19]+0.020*[#  25]+0.020*[#  33]+0.018*[#  23]+0.018*[#  31]
          +0.018*[#  21]+0.018*[#  29]+0.010*[#  24]+0.010*[#  32]+0.004*[#   9]

    |psi|^2 = 0.323
==== e(  40) =     3.25435 eV ====
     psi = 0.215*[#  20]+0.023*[#  28]+0.023*[#  36]+0.022*[#  26]+0.022*[#  34]
          +0.021*[#  22]+0.021*[#  30]+0.011*[#  27]+0.011*[#  35]+0.005*[#  14]
          +0.002*[#  18]
    |psi|^2 = 0.379

 k =   0.0999900000  0.1731877602  0.0000000000
==== e(   1) =  -105.99971 eV ====
     psi = 0.995*[#   1]+0.001*[#  23]+0.001*[#  31]
    |psi|^2 = 1.000
==== e(   2) =  -104.62915 eV ====
     psi = 0.995*[#   2]+0.001*[#  26]+0.001*[#  34]
    |psi|^2 = 1.000
==== e(   3) =   -66.47337 eV ====
     psi = 0.999*[#   3]
    |psi|^2 = 1.000
==== e(   4) =   -66.42007 eV ====
     psi = 0.749*[#   5]+0.250*[#   4]
    |psi|^2 = 1.000
==== e(   5) =   -66.41998 eV ====
     psi = 0.750*[#   4]+0.250*[#   5]
    |psi|^2 = 1.000
==== e(   6) =   -64.96402 eV ====
     psi = 0.999*[#   6]
    |psi|^2 = 1.000
==== e(   7) =   -64.95314 eV ====
     psi = 0.749*[#   8]+0.250*[#   7]
    |psi|^2 = 1.000
==== e(   8) =   -64.95303 eV ====
     psi = 0.750*[#   7]+0.250*[#   8]
    |psi|^2 = 1.000
==== e(   9) =   -15.57140 eV ====
     psi = 0.384*[#  21]+0.384*[#  29]+0.211*[#  19]+0.005*[#  23]+0.005*[#  31]
          +0.004*[#  25]+0.004*[#  33]+0.001*[#  24]+0.001*[#  32]
    |psi|^2 = 1.000
==== e(  10) =   -15.34293 eV ====
     psi = 0.381*[#  22]+0.381*[#  30]+0.216*[#  20]+0.005*[#  26]+0.005*[#  34]
          +0.004*[#  28]+0.004*[#  36]+0.001*[#  27]+0.001*[#  35]
    |psi|^2 = 0.999
==== e(  11) =   -14.73536 eV ====
     psi = 0.490*[#  21]+0.490*[#  29]+0.003*[#  11]+0.003*[#  25]+0.003*[#  33]
          +0.002*[#  23]+0.002*[#  31]+0.002*[#  12]+0.001*[#  10]
    |psi|^2 = 0.998
==== e(  12) =   -14.47519 eV ====
     psi = 0.490*[#  22]+0.490*[#  30]+0.003*[#  28]+0.003*[#  36]+0.003*[#  16]
          +0.002*[#  26]+0.002*[#  34]+0.001*[#  17]
    |psi|^2 = 0.997
==== e(  13) =    -6.64880 eV ====
     psi = 0.361*[#  23]+0.361*[#  31]+0.092*[#  19]+0.084*[#   9]+0.038*[#  21]
          +0.038*[#  29]+0.006*[#  25]+0.006*[#  33]+0.002*[#   1]+0.002*[#  24]
          +0.002*[#  32]
    |psi|^2 = 0.995
==== e(  14) =    -6.43713 eV ====
     psi = 0.365*[#  26]+0.365*[#  34]+0.097*[#  20]+0.062*[#  14]+0.042*[#  22]
          +0.042*[#  30]+0.007*[#  28]+0.007*[#  36]+0.002*[#  27]+0.002*[#  35]
          +0.002*[#   2]
    |psi|^2 = 0.994
==== e(  15) =    -6.06356 eV ====
     psi = 0.255*[#  12]+0.180*[#  11]+0.123*[#  25]+0.123*[#  33]+0.085*[#  13]
          +0.060*[#  10]+0.042*[#  23]+0.042*[#  31]+0.042*[#  24]+0.042*[#  32]

    |psi|^2 = 0.993
==== e(  16) =    -5.80984 eV ====
     psi = 0.318*[#  10]+0.239*[#  13]+0.106*[#  11]+0.090*[#  24]+0.090*[#  32]
          +0.080*[#  12]+0.036*[#  25]+0.036*[#  33]
    |psi|^2 = 0.995
==== e(  17) =    -5.21136 eV ====
     psi = 0.202*[#  28]+0.202*[#  36]+0.202*[#  17]+0.068*[#  27]+0.068*[#  35]
          +0.067*[#  18]+0.066*[#  26]+0.066*[#  34]+0.028*[#  16]+0.009*[#  15]
          +0.002*[#  22]+0.002*[#  30]
    |psi|^2 = 0.984
==== e(  18) =    -4.74052 eV ====
     psi = 0.168*[#   9]+0.160*[#  25]+0.160*[#  33]+0.104*[#  10]+0.099*[#  13]
          +0.079*[#  24]+0.079*[#  32]+0.035*[#  11]+0.035*[#  19]+0.033*[#  12]
          +0.011*[#  21]+0.011*[#  29]+0.005*[#  23]+0.005*[#  31]
    |psi|^2 = 0.984
==== e(  19) =    -4.61003 eV ====
     psi = 0.454*[#  11]+0.151*[#  10]+0.118*[#  12]+0.064*[#  24]+0.064*[#  32]
          +0.041*[#  25]+0.041*[#  33]+0.039*[#  13]+0.004*[#  23]+0.004*[#  31]
          +0.002*[#  21]+0.002*[#  29]
    |psi|^2 = 0.985
==== e(  20) =    -4.58351 eV ====
     psi = 0.245*[#  18]+0.205*[#  27]+0.205*[#  35]+0.082*[#  17]+0.072*[#  28]
          +0.072*[#  36]+0.066*[#  15]+0.022*[#  16]+0.006*[#  14]+0.004*[#  20]

    |psi|^2 = 0.984
==== e(  21) =    -4.29666 eV ====
     psi = 0.222*[#  28]+0.222*[#  36]+0.134*[#  14]+0.124*[#  15]+0.074*[#  27]
          +0.074*[#  35]+0.041*[#  16]+0.039*[#  20]+0.014*[#  22]+0.014*[#  30]
          +0.012*[#  26]+0.012*[#  34]
    |psi|^2 = 0.984
==== e(  22) =    -4.10150 eV ====
     psi = 0.347*[#   9]+0.211*[#  13]+0.209*[#  10]+0.070*[#  12]+0.070*[#  11]
          +0.022*[#  19]+0.013*[#  25]+0.013*[#  33]+0.008*[#  23]+0.008*[#  31]
          +0.006*[#  21]+0.006*[#  29]+0.005*[#  24]+0.005*[#  32]
    |psi|^2 = 0.991
==== e(  23) =    -3.71926 eV ====
     psi = 0.399*[#  16]+0.133*[#  15]+0.129*[#  27]+0.129*[#  35]+0.073*[#  17]
          +0.043*[#  28]+0.043*[#  36]+0.024*[#  18]+0.004*[#  26]+0.004*[#  34]

    |psi|^2 = 0.981
==== e(  24) =    -3.53605 eV ====
     psi = 0.413*[#  23]+0.413*[#  31]+0.058*[#  25]+0.058*[#  33]+0.020*[#  24]
          +0.020*[#  32]+0.001*[#  12]
    |psi|^2 = 0.986
==== e(  25) =    -3.46807 eV ====
     psi = 0.388*[#   9]+0.113*[#  25]+0.113*[#  33]+0.083*[#  13]+0.054*[#  24]
          +0.054*[#  32]+0.051*[#  23]+0.051*[#  31]+0.037*[#  10]+0.028*[#  12]
          +0.012*[#  11]+0.004*[#  19]+0.002*[#  21]+0.002*[#  29]
    |psi|^2 = 0.991
==== e(  26) =    -3.31246 eV ====
     psi = 0.287*[#  15]+0.261*[#  14]+0.222*[#  18]+0.096*[#  16]+0.074*[#  17]
          +0.014*[#  20]+0.006*[#  26]+0.006*[#  34]+0.004*[#  27]+0.004*[#  35]
          +0.003*[#  22]+0.003*[#  30]+0.003*[#  28]+0.003*[#  36]
    |psi|^2 = 0.986
==== e(  27) =    -3.31228 eV ====
     psi = 0.311*[#  12]+0.132*[#  24]+0.132*[#  32]+0.128*[#  25]+0.128*[#  33]
          +0.104*[#  13]+0.014*[#  23]+0.014*[#  31]+0.011*[#  11]+0.004*[#  10]
          +0.003*[#  21]+0.003*[#  29]
    |psi|^2 = 0.985
==== e(  28) =    -3.29832 eV ====
     psi = 0.398*[#  26]+0.398*[#  34]+0.068*[#  28]+0.068*[#  36]+0.024*[#  27]
          +0.024*[#  35]+0.001*[#  16]
    |psi|^2 = 0.983
==== e(  29) =    -2.84178 eV ====
     psi = 0.521*[#  14]+0.096*[#  18]+0.067*[#  28]+0.067*[#  36]+0.047*[#  15]
          +0.040*[#  26]+0.040*[#  34]+0.032*[#  17]+0.032*[#  27]+0.032*[#  35]
          +0.016*[#  16]
    |psi|^2 = 0.990
==== e(  30) =    -2.74615 eV ====
     psi = 0.273*[#  17]+0.183*[#  27]+0.183*[#  35]+0.091*[#  18]+0.084*[#  28]
          +0.084*[#  36]+0.057*[#  16]+0.019*[#  15]+0.004*[#  26]+0.004*[#  34]

    |psi|^2 = 0.983
==== e(  31) =    -2.61262 eV ====
     psi = 0.231*[#  24]+0.231*[#  32]+0.135*[#  25]+0.135*[#  33]+0.096*[#  11]
          +0.057*[#  12]+0.032*[#  10]+0.022*[#  23]+0.022*[#  31]+0.019*[#  13]
          +0.005*[#  21]+0.005*[#  29]
    |psi|^2 = 0.990
==== e(  32) =    -2.32418 eV ====
     psi = 0.244*[#  24]+0.244*[#  32]+0.118*[#  25]+0.118*[#  33]+0.112*[#  13]
          +0.076*[#  10]+0.037*[#  12]+0.025*[#  11]+0.003*[#  23]+0.003*[#  31]
          +0.003*[#   9]+0.001*[#  21]+0.001*[#  29]
    |psi|^2 = 0.989
==== e(  33) =    -1.42894 eV ====
     psi = 0.250*[#  16]+0.189*[#  17]+0.086*[#  28]+0.086*[#  36]+0.084*[#  27]
          +0.084*[#  35]+0.083*[#  15]+0.063*[#  18]+0.022*[#  26]+0.022*[#  34]
          +0.007*[#  22]+0.007*[#  30]
    |psi|^2 = 0.983
==== e(  34) =    -1.15566 eV ====
     psi = 0.214*[#  15]+0.175*[#  18]+0.153*[#  27]+0.153*[#  35]+0.074*[#  28]
          +0.074*[#  36]+0.071*[#  16]+0.058*[#  17]+0.002*[#  26]+0.002*[#  34]
          +0.001*[#  14]
    |psi|^2 = 0.981
==== e(  35) =     2.52530 eV ====
     psi = 0.317*[#  19]+0.033*[#  23]+0.033*[#  31]+0.028*[#  21]+0.028*[#  29]
          +0.021*[#  25]+0.021*[#  33]+0.008*[#  24]+0.008*[#  32]
    |psi|^2 = 0.501
==== e(  36) =     2.65956 eV ====
     psi = 0.248*[#  20]+0.027*[#  26]+0.027*[#  34]+0.023*[#  22]+0.023*[#  30]
          +0.017*[#  28]+0.017*[#  36]+0.006*[#  27]+0.006*[#  35]
    |psi|^2 = 0.395
==== e(  37) =     2.93853 eV ====

    |psi|^2 = 0.004
==== e(  38) =     2.96583 eV ====
     psi = 0.146*[#  19]+0.020*[#  25]+0.020*[#  33]+0.013*[#  23]+0.013*[#  31]
          +0.012*[#  24]+0.012*[#  32]+0.012*[#  21]+0.012*[#  29]+0.003*[#   9]
          +0.001*[#  13]
    |psi|^2 = 0.267
==== e(  39) =     3.03074 eV ====
     psi = 0.002*[#  17]
    |psi|^2 = 0.005
==== e(  40) =     3.14633 eV ====
     psi = 0.201*[#  20]+0.027*[#  28]+0.027*[#  36]+0.019*[#  26]+0.019*[#  34]
          +0.017*[#  22]+0.017*[#  30]+0.016*[#  27]+0.016*[#  35]+0.004*[#  14]
          +0.003*[#  18]
    |psi|^2 = 0.368

 k =   0.1166550000  0.2020523870  0.0000000000
==== e(   1) =  -105.99971 eV ====
     psi = 0.995*[#   1]+0.001*[#  23]+0.001*[#  31]
    |psi|^2 = 1.000
==== e(   2) =  -104.62915 eV ====
     psi = 0.995*[#   2]+0.001*[#  26]+0.001*[#  34]
    |psi|^2 = 1.000
==== e(   3) =   -66.47336 eV ====
     psi = 0.999*[#   3]
    |psi|^2 = 1.000
==== e(   4) =   -66.42011 eV ====
     psi = 0.749*[#   5]+0.250*[#   4]
    |psi|^2 = 1.000
==== e(   5) =   -66.41999 eV ====
     psi = 0.750*[#   4]+0.250*[#   5]
    |psi|^2 = 1.000
==== e(   6) =   -64.96401 eV ====
     psi = 0.999*[#   6]
    |psi|^2 = 1.000
==== e(   7) =   -64.95318 eV ====
     psi = 0.749*[#   8]+0.250*[#   7]
    |psi|^2 = 1.000
==== e(   8) =   -64.95305 eV ====
     psi = 0.750*[#   7]+0.250*[#   8]
    |psi|^2 = 1.000
==== e(   9) =   -15.49553 eV ====
     psi = 0.391*[#  21]+0.391*[#  29]+0.194*[#  19]+0.005*[#  23]+0.005*[#  31]
          +0.005*[#  25]+0.005*[#  33]+0.002*[#  24]+0.002*[#  32]
    |psi|^2 = 0.999
==== e(  10) =   -15.26571 eV ====
     psi = 0.388*[#  22]+0.388*[#  30]+0.199*[#  20]+0.005*[#  26]+0.005*[#  34]
          +0.005*[#  28]+0.005*[#  36]+0.002*[#  27]+0.002*[#  35]
    |psi|^2 = 0.999
==== e(  11) =   -14.69828 eV ====
     psi = 0.489*[#  21]+0.489*[#  29]+0.005*[#  11]+0.003*[#  25]+0.003*[#  33]
          +0.002*[#  12]+0.002*[#  10]+0.001*[#  23]+0.001*[#  31]+0.001*[#  24]
          +0.001*[#  32]
    |psi|^2 = 0.998
==== e(  12) =   -14.43684 eV ====
     psi = 0.489*[#  22]+0.489*[#  30]+0.004*[#  16]+0.003*[#  28]+0.003*[#  36]
          +0.002*[#  17]+0.001*[#  26]+0.001*[#  34]+0.001*[#  15]+0.001*[#  27]
          +0.001*[#  35]
    |psi|^2 = 0.998
==== e(  13) =    -6.59122 eV ====
     psi = 0.349*[#  23]+0.349*[#  31]+0.102*[#  19]+0.074*[#   9]+0.040*[#  21]
          +0.040*[#  29]+0.013*[#  25]+0.013*[#  33]+0.004*[#  24]+0.004*[#  32]
          +0.002*[#  10]+0.002*[#   1]
    |psi|^2 = 0.995
==== e(  14) =    -6.38343 eV ====
     psi = 0.351*[#  26]+0.351*[#  34]+0.108*[#  20]+0.054*[#  14]+0.044*[#  22]
          +0.044*[#  30]+0.014*[#  28]+0.014*[#  36]+0.005*[#  27]+0.005*[#  35]
          +0.002*[#   2]+0.001*[#  15]
    |psi|^2 = 0.995
==== e(  15) =    -6.12934 eV ====
     psi = 0.243*[#  12]+0.153*[#  11]+0.136*[#  25]+0.136*[#  33]+0.081*[#  13]
          +0.051*[#  10]+0.050*[#  23]+0.050*[#  31]+0.046*[#  24]+0.046*[#  32]

    |psi|^2 = 0.992
==== e(  16) =    -5.81643 eV ====
     psi = 0.331*[#  10]+0.219*[#  13]+0.110*[#  11]+0.088*[#  24]+0.088*[#  32]
          +0.073*[#  12]+0.040*[#  25]+0.040*[#  33]+0.001*[#   9]+0.001*[#  23]
          +0.001*[#  31]
    |psi|^2 = 0.995
==== e(  17) =    -5.37128 eV ====
     psi = 0.215*[#  28]+0.215*[#  36]+0.179*[#  17]+0.073*[#  27]+0.073*[#  35]
          +0.068*[#  26]+0.068*[#  34]+0.060*[#  18]+0.020*[#  16]+0.007*[#  15]
          +0.002*[#  22]+0.002*[#  30]
    |psi|^2 = 0.983
==== e(  18) =    -4.94987 eV ====
     psi = 0.180*[#  25]+0.180*[#  33]+0.172*[#   9]+0.095*[#  24]+0.095*[#  32]
          +0.071*[#  13]+0.052*[#  10]+0.041*[#  19]+0.024*[#  12]+0.017*[#  11]
          +0.015*[#  23]+0.015*[#  31]+0.012*[#  21]+0.012*[#  29]
    |psi|^2 = 0.982
==== e(  19) =    -4.72864 eV ====
     psi = 0.456*[#  11]+0.152*[#  10]+0.082*[#  24]+0.082*[#  32]+0.073*[#  12]
          +0.052*[#  25]+0.052*[#  33]+0.024*[#  13]+0.003*[#  21]+0.002*[#  23]
          +0.003*[#  29]+0.002*[#  31]
    |psi|^2 = 0.984
==== e(  20) =    -4.64359 eV ====
     psi = 0.184*[#  27]+0.184*[#  35]+0.146*[#  18]+0.135*[#  28]+0.135*[#  36]
          +0.063*[#  14]+0.049*[#  17]+0.029*[#  20]+0.015*[#  26]+0.015*[#  34]
          +0.007*[#  22]+0.007*[#  30]+0.005*[#  15]+0.002*[#  16]
    |psi|^2 = 0.975
==== e(  21) =    -4.52243 eV ====
     psi = 0.178*[#  15]+0.164*[#  28]+0.164*[#  36]+0.108*[#  27]+0.108*[#  35]
          +0.066*[#  14]+0.064*[#  18]+0.059*[#  16]+0.021*[#  17]+0.017*[#  20]
          +0.014*[#  26]+0.014*[#  34]+0.007*[#  22]+0.007*[#  30]
    |psi|^2 = 0.991
==== e(  22) =    -4.10579 eV ====
     psi = 0.275*[#   9]+0.258*[#  13]+0.233*[#  10]+0.086*[#  12]+0.078*[#  11]
          +0.018*[#  19]+0.008*[#  25]+0.008*[#  33]+0.007*[#  23]+0.007*[#  31]
          +0.004*[#  21]+0.004*[#  29]+0.003*[#  24]+0.003*[#  32]
    |psi|^2 = 0.991
==== e(  23) =    -3.83148 eV ====
     psi = 0.377*[#  16]+0.152*[#  27]+0.152*[#  35]+0.126*[#  15]+0.051*[#  28]
          +0.051*[#  36]+0.047*[#  17]+0.016*[#  18]+0.004*[#  26]+0.004*[#  34]

    |psi|^2 = 0.980
==== e(  24) =    -3.58707 eV ====
     psi = 0.231*[#  23]+0.231*[#  31]+0.148*[#  25]+0.148*[#  33]+0.088*[#  12]
          +0.050*[#  24]+0.050*[#  32]+0.029*[#  13]+0.003*[#  11]
    |psi|^2 = 0.982
==== e(  25) =    -3.53285 eV ====
     psi = 0.465*[#   9]+0.093*[#  13]+0.077*[#  25]+0.077*[#  33]+0.054*[#  23]
          +0.054*[#  31]+0.044*[#  24]+0.044*[#  32]+0.036*[#  10]+0.031*[#  12]
          +0.012*[#  11]+0.003*[#  19]+0.001*[#  21]+0.001*[#  29]
    |psi|^2 = 0.992
==== e(  26) =    -3.38768 eV ====
     psi = 0.294*[#  12]+0.164*[#  23]+0.164*[#  31]+0.098*[#  13]+0.081*[#  24]
          +0.081*[#  32]+0.043*[#  25]+0.043*[#  33]+0.015*[#  11]+0.005*[#  10]
          +0.002*[#  21]+0.002*[#  29]
    |psi|^2 = 0.990
==== e(  27) =    -3.31993 eV ====
     psi = 0.276*[#  15]+0.258*[#  18]+0.233*[#  14]+0.092*[#  16]+0.086*[#  17]
          +0.014*[#  20]+0.006*[#  26]+0.006*[#  34]+0.003*[#  27]+0.003*[#  35]
          +0.003*[#  22]+0.003*[#  30]+0.002*[#  28]+0.002*[#  36]
    |psi|^2 = 0.986
==== e(  28) =    -3.31759 eV ====
     psi = 0.371*[#  26]+0.371*[#  34]+0.085*[#  28]+0.085*[#  36]+0.029*[#  27]
          +0.029*[#  35]+0.008*[#  17]+0.003*[#  18]
    |psi|^2 = 0.982
==== e(  29) =    -2.86866 eV ====
     psi = 0.569*[#  14]+0.105*[#  18]+0.047*[#  28]+0.047*[#  36]+0.041*[#  26]
          +0.041*[#  34]+0.040*[#  15]+0.035*[#  17]+0.026*[#  27]+0.026*[#  35]
          +0.013*[#  16]
    |psi|^2 = 0.991
==== e(  30) =    -2.78377 eV ====
     psi = 0.328*[#  17]+0.148*[#  27]+0.148*[#  35]+0.109*[#  18]+0.066*[#  28]
          +0.066*[#  36]+0.065*[#  16]+0.022*[#  15]+0.015*[#  26]+0.015*[#  34]

    |psi|^2 = 0.984
==== e(  31) =    -2.65046 eV ====
     psi = 0.231*[#  24]+0.231*[#  32]+0.114*[#  11]+0.107*[#  25]+0.107*[#  33]
          +0.048*[#  23]+0.048*[#  31]+0.043*[#  12]+0.038*[#  10]+0.014*[#  13]
          +0.005*[#  21]+0.005*[#  29]
    |psi|^2 = 0.991
==== e(  32) =    -2.44973 eV ====
     psi = 0.234*[#  24]+0.234*[#  32]+0.121*[#  25]+0.121*[#  33]+0.102*[#  13]
          +0.091*[#  10]+0.034*[#  12]+0.030*[#  11]+0.005*[#  23]+0.005*[#  31]
          +0.005*[#   9]+0.001*[#  21]+0.001*[#  29]
    |psi|^2 = 0.986
==== e(  33) =    -1.44905 eV ====
     psi = 0.273*[#  16]+0.173*[#  17]+0.091*[#  15]+0.086*[#  27]+0.086*[#  35]
          +0.066*[#  28]+0.066*[#  36]+0.058*[#  18]+0.037*[#  26]+0.037*[#  34]
          +0.007*[#  22]+0.007*[#  30]
    |psi|^2 = 0.985
==== e(  34) =    -1.24933 eV ====
     psi = 0.238*[#  15]+0.164*[#  18]+0.141*[#  27]+0.141*[#  35]+0.079*[#  16]
          +0.075*[#  28]+0.075*[#  36]+0.055*[#  17]+0.003*[#  26]+0.003*[#  34]
          +0.002*[#  14]+0.001*[#  22]+0.001*[#  30]
    |psi|^2 = 0.977
==== e(  35) =     2.65433 eV ====
     psi = 0.428*[#  19]+0.041*[#  23]+0.041*[#  31]+0.038*[#  25]+0.038*[#  33]
          +0.032*[#  21]+0.032*[#  29]+0.017*[#  24]+0.017*[#  32]+0.001*[#  13]
          +0.001*[#   1]
    |psi|^2 = 0.688
==== e(  36) =     2.82817 eV ====
     psi = 0.316*[#  20]+0.031*[#  26]+0.031*[#  34]+0.027*[#  28]+0.027*[#  36]
          +0.024*[#  22]+0.024*[#  30]+0.011*[#  27]+0.011*[#  35]
    |psi|^2 = 0.505
==== e(  37) =     2.88299 eV ====
     psi = 0.025*[#  19]+0.008*[#  25]+0.008*[#  33]+0.007*[#  24]+0.007*[#  32]
          +0.002*[#   9]+0.002*[#  23]+0.002*[#  31]+0.001*[#  21]+0.001*[#  29]

    |psi|^2 = 0.064
==== e(  38) =     3.00898 eV ====
     psi = 0.001*[#  12]
    |psi|^2 = 0.005
==== e(  39) =     3.03322 eV ====
     psi = 0.121*[#  20]+0.021*[#  28]+0.021*[#  36]+0.016*[#  27]+0.016*[#  35]
          +0.010*[#  26]+0.010*[#  34]+0.008*[#  22]+0.008*[#  30]+0.003*[#  14]
          +0.003*[#  18]+0.001*[#  17]
    |psi|^2 = 0.241
==== e(  40) =     3.10882 eV ====
     psi = 0.002*[#  17]
    |psi|^2 = 0.007

 k =   0.1333200000  0.2309170137  0.0000000000
==== e(   1) =  -105.99971 eV ====
     psi = 0.995*[#   1]+0.001*[#  23]+0.001*[#  31]
    |psi|^2 = 1.000
==== e(   2) =  -104.62915 eV ====
     psi = 0.995*[#   2]+0.001*[#  26]+0.001*[#  34]
    |psi|^2 = 1.000
==== e(   3) =   -66.47336 eV ====
     psi = 0.999*[#   3]
    |psi|^2 = 1.000
==== e(   4) =   -66.42015 eV ====
     psi = 0.749*[#   5]+0.250*[#   4]
    |psi|^2 = 1.000
==== e(   5) =   -66.42001 eV ====
     psi = 0.750*[#   4]+0.250*[#   5]
    |psi|^2 = 1.000
==== e(   6) =   -64.96400 eV ====
     psi = 0.999*[#   6]
    |psi|^2 = 1.000
==== e(   7) =   -64.95322 eV ====
     psi = 0.749*[#   8]+0.250*[#   7]
    |psi|^2 = 1.000
==== e(   8) =   -64.95307 eV ====
     psi = 0.749*[#   7]+0.250*[#   8]
    |psi|^2 = 1.000
==== e(   9) =   -15.41149 eV ====
     psi = 0.399*[#  21]+0.399*[#  29]+0.176*[#  19]+0.006*[#  25]+0.006*[#  33]
          +0.005*[#  23]+0.005*[#  31]+0.002*[#  24]+0.002*[#  32]
    |psi|^2 = 0.999
==== e(  10) =   -15.18008 eV ====
     psi = 0.396*[#  22]+0.396*[#  30]+0.180*[#  20]+0.006*[#  28]+0.006*[#  36]
          +0.005*[#  26]+0.005*[#  34]+0.002*[#  27]+0.002*[#  35]
    |psi|^2 = 0.999
==== e(  11) =   -14.65910 eV ====
     psi = 0.488*[#  21]+0.488*[#  29]+0.006*[#  11]+0.003*[#  25]+0.003*[#  33]
          +0.003*[#  12]+0.002*[#  10]+0.001*[#  23]+0.001*[#  24]+0.001*[#  31]
          +0.001*[#  32]
    |psi|^2 = 0.998
==== e(  12) =   -14.39632 eV ====
     psi = 0.488*[#  22]+0.488*[#  30]+0.005*[#  16]+0.004*[#  28]+0.004*[#  36]
          +0.002*[#  17]+0.002*[#  15]+0.001*[#  27]+0.001*[#  35]+0.001*[#  26]
          +0.001*[#  34]
    |psi|^2 = 0.998
==== e(  13) =    -6.54454 eV ====
     psi = 0.325*[#  23]+0.325*[#  31]+0.117*[#  19]+0.058*[#   9]+0.042*[#  21]
          +0.042*[#  29]+0.027*[#  25]+0.027*[#  33]+0.009*[#  24]+0.009*[#  32]
          +0.006*[#  10]+0.002*[#   1]+0.002*[#  11]+0.001*[#  13]
    |psi|^2 = 0.995
==== e(  14) =    -6.34125 eV ====
     psi = 0.327*[#  26]+0.327*[#  34]+0.124*[#  20]+0.046*[#  22]+0.046*[#  30]
          +0.042*[#  14]+0.028*[#  28]+0.028*[#  36]+0.009*[#  27]+0.009*[#  35]
          +0.003*[#  15]+0.002*[#   2]+0.002*[#  18]
    |psi|^2 = 0.995
==== e(  15) =    -6.19477 eV ====
     psi = 0.230*[#  12]+0.151*[#  25]+0.151*[#  33]+0.124*[#  11]+0.077*[#  13]
          +0.057*[#  23]+0.057*[#  31]+0.051*[#  24]+0.051*[#  32]+0.041*[#  10]

    |psi|^2 = 0.990
==== e(  16) =    -5.82963 eV ====
     psi = 0.341*[#  10]+0.196*[#  13]+0.114*[#  11]+0.085*[#  24]+0.085*[#  32]
          +0.065*[#  12]+0.046*[#  25]+0.046*[#  33]+0.006*[#  23]+0.006*[#  31]
          +0.005*[#   9]
    |psi|^2 = 0.996
==== e(  17) =    -5.53007 eV ====
     psi = 0.228*[#  28]+0.228*[#  36]+0.158*[#  17]+0.078*[#  27]+0.078*[#  35]
          +0.069*[#  26]+0.069*[#  34]+0.053*[#  18]+0.013*[#  16]+0.004*[#  15]
          +0.002*[#  22]+0.002*[#  30]
    |psi|^2 = 0.982
==== e(  18) =    -5.15055 eV ====
     psi = 0.179*[#  25]+0.179*[#  33]+0.171*[#   9]+0.108*[#  24]+0.108*[#  32]
          +0.057*[#  13]+0.041*[#  19]+0.035*[#  23]+0.035*[#  31]+0.019*[#  12]
          +0.019*[#  10]+0.011*[#  21]+0.011*[#  29]+0.006*[#  11]
    |psi|^2 = 0.981
==== e(  19) =    -4.86150 eV ====
     psi = 0.457*[#  11]+0.152*[#  10]+0.097*[#  24]+0.097*[#  32]+0.061*[#  25]
          +0.061*[#  33]+0.037*[#  12]+0.012*[#  13]+0.003*[#  21]+0.003*[#  29]

    |psi|^2 = 0.984
==== e(  20) =    -4.84269 eV ====
     psi = 0.202*[#  28]+0.202*[#  36]+0.118*[#  14]+0.114*[#  27]+0.114*[#  35]
          +0.053*[#  26]+0.053*[#  34]+0.043*[#  20]+0.025*[#  18]+0.017*[#  15]
          +0.011*[#  22]+0.011*[#  30]+0.008*[#  17]+0.006*[#  16]
    |psi|^2 = 0.976
==== e(  21) =    -4.59615 eV ====
     psi = 0.187*[#  27]+0.187*[#  35]+0.163*[#  15]+0.148*[#  18]+0.093*[#  28]
          +0.093*[#  36]+0.054*[#  16]+0.049*[#  17]+0.007*[#  14]+0.004*[#  26]
          +0.004*[#  34]
    |psi|^2 = 0.990
==== e(  22) =    -4.10225 eV ====
     psi = 0.299*[#  13]+0.239*[#  10]+0.227*[#   9]+0.100*[#  12]+0.080*[#  11]
          +0.015*[#  19]+0.007*[#  23]+0.007*[#  31]+0.004*[#  25]+0.004*[#  33]
          +0.003*[#  21]+0.003*[#  29]+0.002*[#  24]+0.002*[#  32]
    |psi|^2 = 0.992
==== e(  23) =    -3.94994 eV ====
     psi = 0.355*[#  16]+0.173*[#  27]+0.173*[#  35]+0.118*[#  15]+0.058*[#  28]
          +0.058*[#  36]+0.028*[#  17]+0.009*[#  18]+0.004*[#  26]+0.004*[#  34]

    |psi|^2 = 0.980
==== e(  24) =    -3.73179 eV ====
     psi = 0.208*[#  12]+0.163*[#  25]+0.163*[#  33]+0.129*[#  23]+0.129*[#  31]
          +0.069*[#  13]+0.054*[#  24]+0.054*[#  32]+0.007*[#  11]+0.002*[#  10]
          +0.002*[#  21]+0.002*[#  29]
    |psi|^2 = 0.983
==== e(  25) =    -3.59039 eV ====
     psi = 0.523*[#   9]+0.101*[#  13]+0.054*[#  23]+0.054*[#  31]+0.052*[#  25]
          +0.052*[#  33]+0.039*[#  24]+0.039*[#  32]+0.034*[#  12]+0.030*[#  10]
          +0.010*[#  11]+0.003*[#  19]
    |psi|^2 = 0.992
==== e(  26) =    -3.38875 eV ====
     psi = 0.227*[#  12]+0.222*[#  23]+0.222*[#  31]+0.077*[#  24]+0.077*[#  32]
          +0.076*[#  13]+0.026*[#  25]+0.026*[#  33]+0.025*[#  11]+0.008*[#  10]
          +0.001*[#  21]+0.001*[#  29]
    |psi|^2 = 0.989
==== e(  27) =    -3.37596 eV ====
     psi = 0.339*[#  26]+0.339*[#  34]+0.097*[#  28]+0.097*[#  36]+0.033*[#  17]
          +0.033*[#  27]+0.033*[#  35]+0.011*[#  18]
    |psi|^2 = 0.982
==== e(  28) =    -3.32443 eV ====
     psi = 0.297*[#  18]+0.259*[#  15]+0.209*[#  14]+0.099*[#  17]+0.086*[#  16]
          +0.014*[#  20]+0.006*[#  26]+0.006*[#  34]+0.002*[#  22]+0.002*[#  30]
          +0.002*[#  27]+0.002*[#  35]
    |psi|^2 = 0.986
==== e(  29) =    -2.89830 eV ====
     psi = 0.608*[#  14]+0.112*[#  18]+0.041*[#  26]+0.041*[#  34]+0.037*[#  17]
          +0.033*[#  28]+0.033*[#  36]+0.031*[#  15]+0.021*[#  27]+0.021*[#  35]
          +0.010*[#  16]+0.001*[#  20]
    |psi|^2 = 0.992
==== e(  30) =    -2.81109 eV ====
     psi = 0.356*[#  17]+0.121*[#  27]+0.121*[#  35]+0.119*[#  18]+0.078*[#  16]
          +0.051*[#  28]+0.051*[#  36]+0.031*[#  26]+0.031*[#  34]+0.026*[#  15]

    |psi|^2 = 0.985
==== e(  31) =    -2.65804 eV ====
     psi = 0.209*[#  24]+0.209*[#  32]+0.128*[#  11]+0.087*[#  23]+0.087*[#  31]
          +0.084*[#  25]+0.084*[#  33]+0.043*[#  10]+0.039*[#  12]+0.013*[#  13]
          +0.005*[#  21]+0.005*[#  29]
    |psi|^2 = 0.993
==== e(  32) =    -2.58227 eV ====
     psi = 0.220*[#  24]+0.220*[#  32]+0.124*[#  25]+0.124*[#  33]+0.110*[#  10]
          +0.089*[#  13]+0.037*[#  11]+0.030*[#  12]+0.009*[#  23]+0.009*[#  31]
          +0.008*[#   9]+0.002*[#  21]+0.002*[#  29]
    |psi|^2 = 0.984
==== e(  33) =    -1.43583 eV ====
     psi = 0.289*[#  16]+0.160*[#  17]+0.096*[#  15]+0.083*[#  27]+0.083*[#  35]
          +0.053*[#  18]+0.053*[#  26]+0.053*[#  34]+0.050*[#  28]+0.050*[#  36]
          +0.008*[#  22]+0.008*[#  30]
    |psi|^2 = 0.987
==== e(  34) =    -1.34538 eV ====
     psi = 0.265*[#  15]+0.152*[#  18]+0.128*[#  27]+0.128*[#  35]+0.088*[#  16]
          +0.074*[#  28]+0.074*[#  36]+0.051*[#  17]+0.004*[#  26]+0.004*[#  34]
          +0.003*[#  14]+0.001*[#  22]+0.001*[#  30]
    |psi|^2 = 0.974
==== e(  35) =     2.62137 eV ====
     psi = 0.424*[#  19]+0.048*[#  25]+0.048*[#  33]+0.035*[#  23]+0.035*[#  31]
          +0.028*[#  24]+0.028*[#  32]+0.026*[#  21]+0.026*[#  29]+0.003*[#  13]
          +0.001*[#   1]+0.001*[#   9]
    |psi|^2 = 0.705
==== e(  36) =     2.85767 eV ====
     psi = 0.414*[#  20]+0.050*[#  28]+0.050*[#  36]+0.035*[#  26]+0.035*[#  34]
          +0.030*[#  27]+0.030*[#  35]+0.026*[#  22]+0.026*[#  30]+0.005*[#  18]
          +0.002*[#  17]+0.001*[#  14]+0.001*[#   2]
    |psi|^2 = 0.707
==== e(  37) =     2.97955 eV ====
     psi = 0.032*[#  19]+0.004*[#  23]+0.004*[#  31]+0.002*[#  21]+0.002*[#  29]

    |psi|^2 = 0.050
==== e(  38) =     3.07238 eV ====
     psi = 0.001*[#  12]+0.001*[#  25]+0.001*[#  33]+0.001*[#  24]+0.001*[#  32]

    |psi|^2 = 0.007
==== e(  39) =     3.07496 eV ====
     psi = 0.026*[#  20]+0.003*[#  26]+0.003*[#  34]+0.002*[#  22]+0.002*[#  30]
          +0.001*[#  27]+0.001*[#  35]+0.001*[#  15]
    |psi|^2 = 0.043
==== e(  40) =     3.18143 eV ====
     psi = 0.003*[#  17]+0.001*[#  27]+0.001*[#  28]+0.001*[#  35]+0.001*[#  36]

    |psi|^2 = 0.010

 k =   0.1499850000  0.2597816404  0.0000000000
==== e(   1) =  -105.99971 eV ====
     psi = 0.995*[#   1]+0.001*[#  23]+0.001*[#  31]
    |psi|^2 = 1.000
==== e(   2) =  -104.62915 eV ====
     psi = 0.995*[#   2]+0.001*[#  26]+0.001*[#  34]
    |psi|^2 = 1.000
==== e(   3) =   -66.47335 eV ====
     psi = 0.999*[#   3]
    |psi|^2 = 1.000
==== e(   4) =   -66.42019 eV ====
     psi = 0.749*[#   5]+0.250*[#   4]
    |psi|^2 = 1.000
==== e(   5) =   -66.42002 eV ====
     psi = 0.749*[#   4]+0.250*[#   5]
    |psi|^2 = 1.000
==== e(   6) =   -64.96399 eV ====
     psi = 0.999*[#   6]
    |psi|^2 = 1.000
==== e(   7) =   -64.95327 eV ====
     psi = 0.749*[#   8]+0.250*[#   7]
    |psi|^2 = 1.000
==== e(   8) =   -64.95308 eV ====
     psi = 0.749*[#   7]+0.250*[#   8]
    |psi|^2 = 1.000
==== e(   9) =   -15.32087 eV ====
     psi = 0.407*[#  21]+0.407*[#  29]+0.156*[#  19]+0.006*[#  25]+0.006*[#  33]
          +0.005*[#  23]+0.005*[#  31]+0.002*[#  24]+0.002*[#  32]
    |psi|^2 = 0.999
==== e(  10) =   -15.08764 eV ====
     psi = 0.405*[#  22]+0.405*[#  30]+0.160*[#  20]+0.006*[#  28]+0.006*[#  36]
          +0.005*[#  26]+0.005*[#  34]+0.002*[#  27]+0.002*[#  35]
    |psi|^2 = 0.999
==== e(  11) =   -14.61928 eV ====
     psi = 0.487*[#  21]+0.487*[#  29]+0.007*[#  11]+0.003*[#  12]+0.003*[#  25]
          +0.003*[#  33]+0.002*[#  10]+0.001*[#  13]+0.001*[#  24]+0.001*[#  32]

    |psi|^2 = 0.998
==== e(  12) =   -14.35514 eV ====
     psi = 0.488*[#  22]+0.488*[#  30]+0.006*[#  16]+0.003*[#  28]+0.003*[#  36]
          +0.003*[#  17]+0.002*[#  15]+0.001*[#  27]+0.001*[#  35]
    |psi|^2 = 0.998
==== e(  13) =    -6.52543 eV ====
     psi = 0.281*[#  23]+0.281*[#  31]+0.137*[#  19]+0.054*[#  25]+0.054*[#  33]
          +0.045*[#  21]+0.045*[#  29]+0.038*[#   9]+0.018*[#  24]+0.018*[#  32]
          +0.015*[#  10]+0.005*[#  11]+0.002*[#   1]
    |psi|^2 = 0.995
==== e(  14) =    -6.32528 eV ====
     psi = 0.285*[#  26]+0.285*[#  34]+0.144*[#  20]+0.053*[#  28]+0.053*[#  36]
          +0.049*[#  22]+0.049*[#  30]+0.028*[#  14]+0.018*[#  27]+0.018*[#  35]
          +0.005*[#  15]+0.002*[#  18]+0.002*[#   2]+0.002*[#  16]
    |psi|^2 = 0.994
==== e(  15) =    -6.25753 eV ====
     psi = 0.215*[#  12]+0.168*[#  25]+0.168*[#  33]+0.094*[#  11]+0.072*[#  13]
          +0.063*[#  23]+0.063*[#  31]+0.056*[#  24]+0.056*[#  32]+0.031*[#  10]

    |psi|^2 = 0.989
==== e(  16) =    -5.84682 eV ====
     psi = 0.339*[#  10]+0.175*[#  13]+0.113*[#  11]+0.079*[#  24]+0.079*[#  32]
          +0.058*[#  12]+0.051*[#  25]+0.051*[#  33]+0.020*[#  23]+0.020*[#  31]
          +0.012*[#   9]
    |psi|^2 = 0.996
==== e(  17) =    -5.68270 eV ====
     psi = 0.241*[#  28]+0.241*[#  36]+0.137*[#  17]+0.083*[#  27]+0.083*[#  35]
          +0.068*[#  26]+0.068*[#  34]+0.046*[#  18]+0.007*[#  16]+0.002*[#  15]
          +0.002*[#  22]+0.002*[#  30]
    |psi|^2 = 0.980
==== e(  18) =    -5.31718 eV ====
     psi = 0.171*[#   9]+0.160*[#  25]+0.160*[#  33]+0.118*[#  24]+0.118*[#  32]
          +0.067*[#  23]+0.067*[#  31]+0.048*[#  13]+0.035*[#  19]+0.016*[#  12]
          +0.007*[#  21]+0.007*[#  29]+0.002*[#  10]
    |psi|^2 = 0.980
==== e(  19) =    -5.03771 eV ====
     psi = 0.186*[#  28]+0.186*[#  36]+0.125*[#  14]+0.100*[#  27]+0.100*[#  35]
          +0.098*[#  26]+0.098*[#  34]+0.035*[#  20]+0.019*[#  15]+0.008*[#  18]
          +0.007*[#  22]+0.007*[#  30]+0.006*[#  16]+0.003*[#  17]
    |psi|^2 = 0.977
==== e(  20) =    -5.00224 eV ====
     psi = 0.456*[#  11]+0.152*[#  10]+0.109*[#  24]+0.109*[#  32]+0.067*[#  25]
          +0.067*[#  33]+0.012*[#  12]+0.004*[#  13]+0.004*[#  21]+0.004*[#  29]

    |psi|^2 = 0.984
==== e(  21) =    -4.64281 eV ====
     psi = 0.205*[#  27]+0.205*[#  35]+0.160*[#  15]+0.130*[#  18]+0.091*[#  28]
          +0.091*[#  36]+0.053*[#  16]+0.043*[#  17]+0.003*[#  26]+0.003*[#  34]
          +0.003*[#  14]+0.001*[#  20]
    |psi|^2 = 0.989
==== e(  22) =    -4.09375 eV ====
     psi = 0.337*[#  13]+0.235*[#  10]+0.188*[#   9]+0.112*[#  12]+0.078*[#  11]
          +0.014*[#  19]+0.008*[#  23]+0.008*[#  31]+0.003*[#  21]+0.003*[#  29]
          +0.002*[#  25]+0.002*[#  33]
    |psi|^2 = 0.992
==== e(  23) =    -4.07165 eV ====
     psi = 0.331*[#  16]+0.191*[#  27]+0.191*[#  35]+0.110*[#  15]+0.064*[#  28]
          +0.064*[#  36]+0.016*[#  17]+0.005*[#  18]+0.003*[#  26]+0.003*[#  34]

    |psi|^2 = 0.980
==== e(  24) =    -3.88888 eV ====
     psi = 0.254*[#  12]+0.154*[#  25]+0.154*[#  33]+0.106*[#  23]+0.106*[#  31]
          +0.085*[#  13]+0.053*[#  24]+0.053*[#  32]+0.009*[#  11]+0.003*[#  10]
          +0.003*[#  21]+0.003*[#  29]
    |psi|^2 = 0.985
==== e(  25) =    -3.64890 eV ====
     psi = 0.569*[#   9]+0.108*[#  13]+0.051*[#  23]+0.051*[#  31]+0.038*[#  24]
          +0.038*[#  32]+0.036*[#  12]+0.035*[#  25]+0.035*[#  33]+0.020*[#  10]
          +0.007*[#  11]+0.003*[#  19]
    |psi|^2 = 0.992
==== e(  26) =    -3.46462 eV ====
     psi = 0.310*[#  26]+0.310*[#  34]+0.101*[#  28]+0.101*[#  36]+0.065*[#  17]
          +0.034*[#  27]+0.034*[#  35]+0.022*[#  18]+0.003*[#  16]+0.001*[#  22]
          +0.001*[#  30]
    |psi|^2 = 0.983
==== e(  27) =    -3.39419 eV ====
     psi = 0.218*[#  12]+0.196*[#  23]+0.196*[#  31]+0.092*[#  24]+0.092*[#  32]
          +0.073*[#  13]+0.045*[#  11]+0.031*[#  25]+0.031*[#  33]+0.015*[#  10]

    |psi|^2 = 0.988
==== e(  28) =    -3.32451 eV ====
     psi = 0.337*[#  18]+0.239*[#  15]+0.187*[#  14]+0.112*[#  17]+0.080*[#  16]
          +0.013*[#  20]+0.007*[#  26]+0.007*[#  34]+0.002*[#  22]+0.002*[#  30]

    |psi|^2 = 0.987
==== e(  29) =    -2.93224 eV ====
     psi = 0.642*[#  14]+0.119*[#  18]+0.040*[#  26]+0.040*[#  34]+0.040*[#  17]
          +0.024*[#  28]+0.024*[#  36]+0.022*[#  15]+0.017*[#  27]+0.017*[#  35]
          +0.007*[#  16]+0.001*[#  20]
    |psi|^2 = 0.992
==== e(  30) =    -2.83001 eV ====
     psi = 0.365*[#  17]+0.122*[#  18]+0.101*[#  27]+0.101*[#  35]+0.096*[#  16]
          +0.044*[#  26]+0.044*[#  34]+0.040*[#  28]+0.040*[#  36]+0.032*[#  15]

    |psi|^2 = 0.986
==== e(  31) =    -2.71241 eV ====
     psi = 0.204*[#  24]+0.204*[#  32]+0.134*[#  10]+0.127*[#  25]+0.127*[#  33]
          +0.073*[#  13]+0.045*[#  11]+0.024*[#  12]+0.014*[#   9]+0.014*[#  23]
          +0.014*[#  31]+0.002*[#  21]+0.002*[#  29]+0.001*[#  19]
    |psi|^2 = 0.984
==== e(  32) =    -2.64174 eV ====
     psi = 0.178*[#  24]+0.178*[#  32]+0.136*[#  11]+0.131*[#  23]+0.131*[#  31]
          +0.065*[#  25]+0.065*[#  33]+0.045*[#  10]+0.041*[#  12]+0.014*[#  13]
          +0.005*[#  21]+0.005*[#  29]
    |psi|^2 = 0.994
==== e(  33) =    -1.43698 eV ====
     psi = 0.293*[#  15]+0.140*[#  18]+0.114*[#  27]+0.114*[#  35]+0.098*[#  16]
          +0.073*[#  28]+0.073*[#  36]+0.047*[#  17]+0.006*[#  26]+0.006*[#  34]
          +0.004*[#  14]+0.001*[#  22]+0.001*[#  30]+0.001*[#  20]
    |psi|^2 = 0.973
==== e(  34) =    -1.39988 eV ====
     psi = 0.299*[#  16]+0.151*[#  17]+0.100*[#  15]+0.078*[#  27]+0.078*[#  35]
          +0.071*[#  26]+0.071*[#  34]+0.050*[#  18]+0.038*[#  28]+0.038*[#  36]
          +0.008*[#  22]+0.008*[#  30]
    |psi|^2 = 0.989
==== e(  35) =     2.52154 eV ====
     psi = 0.406*[#  19]+0.050*[#  25]+0.050*[#  33]+0.033*[#  24]+0.033*[#  32]
          +0.030*[#  23]+0.030*[#  31]+0.020*[#  21]+0.020*[#  29]+0.003*[#  13]
          +0.001*[#   1]+0.001*[#  12]
    |psi|^2 = 0.678
==== e(  36) =     2.76246 eV ====
     psi = 0.384*[#  20]+0.051*[#  28]+0.051*[#  36]+0.036*[#  27]+0.036*[#  35]
          +0.029*[#  26]+0.029*[#  34]+0.020*[#  22]+0.020*[#  30]+0.006*[#  18]
          +0.002*[#  17]+0.001*[#   2]+0.001*[#  14]
    |psi|^2 = 0.665
==== e(  37) =     3.12172 eV ====
     psi = 0.002*[#  25]+0.002*[#  33]+0.002*[#  12]+0.002*[#  24]+0.002*[#  32]

    |psi|^2 = 0.009
==== e(  38) =     3.16763 eV ====
     psi = 0.063*[#  19]+0.006*[#  23]+0.006*[#  31]+0.004*[#  21]+0.004*[#  29]
          +0.003*[#  25]+0.003*[#  33]+0.001*[#  24]+0.001*[#  32]
    |psi|^2 = 0.093
==== e(  39) =     3.24052 eV ====
     psi = 0.003*[#  17]+0.002*[#  27]+0.002*[#  28]+0.002*[#  35]+0.002*[#  36]
          +0.001*[#  18]
    |psi|^2 = 0.012
==== e(  40) =     3.26522 eV ====
     psi = 0.069*[#  20]+0.006*[#  26]+0.006*[#  34]+0.004*[#  22]+0.004*[#  30]
          +0.004*[#  28]+0.004*[#  36]+0.001*[#  27]+0.001*[#  35]+0.001*[#  15]

    |psi|^2 = 0.103

 k =   0.1666500000  0.2886462671  0.0000000000
==== e(   1) =  -105.99970 eV ====
     psi = 0.995*[#   1]
    |psi|^2 = 1.000
==== e(   2) =  -104.62915 eV ====
     psi = 0.995*[#   2]
    |psi|^2 = 1.000
==== e(   3) =   -66.47334 eV ====
     psi = 0.999*[#   3]
    |psi|^2 = 1.000
==== e(   4) =   -66.42022 eV ====
     psi = 0.749*[#   5]+0.250*[#   4]
    |psi|^2 = 1.000
==== e(   5) =   -66.42004 eV ====
     psi = 0.749*[#   4]+0.250*[#   5]
    |psi|^2 = 1.000
==== e(   6) =   -64.96398 eV ====
     psi = 0.999*[#   6]
    |psi|^2 = 1.000
==== e(   7) =   -64.95331 eV ====
     psi = 0.749*[#   8]+0.250*[#   7]
    |psi|^2 = 1.000
==== e(   8) =   -64.95310 eV ====
     psi = 0.749*[#   7]+0.250*[#   8]
    |psi|^2 = 1.000
==== e(   9) =   -15.22552 eV ====
     psi = 0.417*[#  21]+0.417*[#  29]+0.135*[#  19]+0.007*[#  25]+0.007*[#  33]
          +0.005*[#  23]+0.005*[#  31]+0.002*[#  24]+0.002*[#  32]
    |psi|^2 = 0.999
==== e(  10) =   -14.99022 eV ====
[...]
     psi = 0.366*[#  21]+0.366*[#  29]+0.257*[#  19]+0.005*[#  23]+0.005*[#  31]
          +0.001*[#   1]
    |psi|^2 = 1.000
==== e(  10) =   -15.55103 eV ====
     psi = 0.363*[#  22]+0.363*[#  30]+0.262*[#  20]+0.005*[#  26]+0.005*[#  34]
          +0.001*[#   2]
    |psi|^2 = 1.000
==== e(  11) =   -14.84276 eV ====
     psi = 0.495*[#  21]+0.495*[#  29]+0.003*[#  23]+0.003*[#  31]
    |psi|^2 = 0.997
==== e(  12) =   -14.58618 eV ====
     psi = 0.495*[#  22]+0.495*[#  30]+0.003*[#  26]+0.003*[#  34]
    |psi|^2 = 0.997
==== e(  13) =    -6.84245 eV ====
     psi = 0.374*[#  23]+0.374*[#  31]+0.099*[#   9]+0.073*[#  19]+0.036*[#  21]
          +0.036*[#  29]+0.002*[#   1]
    |psi|^2 = 0.994
==== e(  14) =    -6.62373 eV ====
     psi = 0.380*[#  26]+0.380*[#  34]+0.077*[#  14]+0.077*[#  20]+0.039*[#  22]
          +0.039*[#  30]+0.002*[#   2]
    |psi|^2 = 0.994
==== e(  15) =    -5.84358 eV ====
     psi = 0.286*[#  13]+0.268*[#  10]+0.095*[#  12]+0.092*[#  24]+0.092*[#  32]
          +0.089*[#  11]+0.031*[#  25]+0.031*[#  33]+0.005*[#  23]+0.005*[#  31]

    |psi|^2 = 0.995
==== e(  16) =    -5.81601 eV ====
     psi = 0.285*[#  12]+0.281*[#  11]+0.095*[#  13]+0.094*[#  10]+0.090*[#  25]
          +0.090*[#  33]+0.030*[#  24]+0.030*[#  32]
    |psi|^2 = 0.995
==== e(  17) =    -4.64663 eV ====
     psi = 0.301*[#  18]+0.174*[#  27]+0.174*[#  35]+0.100*[#  17]+0.063*[#  15]
          +0.058*[#  28]+0.058*[#  36]+0.021*[#  16]+0.019*[#  26]+0.019*[#  34]

    |psi|^2 = 0.988
==== e(  18) =    -4.56918 eV ====
     psi = 0.316*[#  17]+0.177*[#  28]+0.177*[#  36]+0.105*[#  18]+0.070*[#  16]
          +0.059*[#  27]+0.059*[#  35]+0.023*[#  15]
    |psi|^2 = 0.988
==== e(  19) =    -4.31442 eV ====
     psi = 0.429*[#  10]+0.279*[#  13]+0.143*[#  11]+0.093*[#  12]+0.014*[#  24]
          +0.014*[#  32]+0.005*[#  25]+0.005*[#  33]+0.002*[#  23]+0.002*[#  31]
          +0.002*[#   9]
    |psi|^2 = 0.989
==== e(  20) =    -4.29714 eV ====
     psi = 0.418*[#  11]+0.300*[#  12]+0.139*[#  10]+0.100*[#  13]+0.012*[#  25]
          +0.012*[#  33]+0.004*[#  24]+0.004*[#  32]
    |psi|^2 = 0.990
==== e(  21) =    -3.94674 eV ====
     psi = 0.858*[#   9]+0.031*[#  23]+0.031*[#  31]+0.028*[#  19]+0.009*[#  24]
          +0.009*[#  32]+0.007*[#  21]+0.007*[#  29]+0.003*[#  25]+0.003*[#  33]
          +0.002*[#  10]+0.002*[#  13]
    |psi|^2 = 0.992
==== e(  22) =    -3.75798 eV ====
     psi = 0.487*[#  23]+0.487*[#  31]+0.009*[#  13]+0.003*[#  12]+0.003*[#  21]
          +0.003*[#  29]+0.002*[#  24]+0.002*[#  32]
    |psi|^2 = 0.994
==== e(  23) =    -3.50221 eV ====
     psi = 0.466*[#  26]+0.466*[#  34]+0.023*[#  18]+0.008*[#  17]+0.007*[#  27]
          +0.007*[#  35]+0.004*[#  15]+0.002*[#  28]+0.002*[#  36]+0.002*[#  22]
          +0.002*[#  30]+0.001*[#  16]
    |psi|^2 = 0.992
==== e(  24) =    -3.39383 eV ====
     psi = 0.453*[#  15]+0.151*[#  16]+0.149*[#  18]+0.051*[#  14]+0.050*[#  17]
          +0.040*[#  27]+0.040*[#  35]+0.013*[#  28]+0.013*[#  36]+0.009*[#  26]
          +0.009*[#  34]+0.003*[#  20]+0.001*[#  22]+0.001*[#  30]
    |psi|^2 = 0.985
==== e(  25) =    -3.37887 eV ====
     psi = 0.503*[#  16]+0.190*[#  17]+0.168*[#  15]+0.063*[#  18]+0.023*[#  28]
          +0.023*[#  36]+0.008*[#  27]+0.008*[#  35]
    |psi|^2 = 0.985
==== e(  26) =    -3.23349 eV ====
     psi = 0.752*[#  14]+0.049*[#  15]+0.027*[#  20]+0.025*[#  18]+0.023*[#  27]
          +0.023*[#  35]+0.017*[#  26]+0.017*[#  34]+0.016*[#  16]+0.008*[#  17]
          +0.008*[#  28]+0.008*[#  36]+0.007*[#  22]+0.007*[#  30]
    |psi|^2 = 0.986
==== e(  27) =    -2.98735 eV ====
     psi = 0.342*[#  24]+0.342*[#  32]+0.114*[#  25]+0.114*[#  33]+0.027*[#   9]
          +0.014*[#  13]+0.007*[#  23]+0.007*[#  31]+0.005*[#  12]+0.004*[#  10]
          +0.004*[#  19]+0.002*[#  21]+0.002*[#  29]+0.001*[#  11]
    |psi|^2 = 0.984
==== e(  28) =    -2.90520 eV ====
     psi = 0.360*[#  25]+0.360*[#  33]+0.120*[#  24]+0.120*[#  32]+0.014*[#  12]
          +0.005*[#  13]+0.003*[#  11]
    |psi|^2 = 0.983
==== e(  29) =    -2.68203 eV ====
     psi = 0.303*[#  27]+0.303*[#  35]+0.101*[#  28]+0.101*[#  36]+0.099*[#  14]
          +0.024*[#  18]+0.014*[#  15]+0.011*[#  26]+0.011*[#  34]+0.008*[#  17]
          +0.005*[#  16]+0.001*[#  20]
    |psi|^2 = 0.983
==== e(  30) =    -2.63315 eV ====
     psi = 0.349*[#  28]+0.349*[#  36]+0.116*[#  27]+0.116*[#  35]+0.024*[#  17]
          +0.013*[#  16]+0.008*[#  18]+0.004*[#  15]
    |psi|^2 = 0.980
==== e(  31) =    -2.10056 eV ====
     psi = 0.274*[#  24]+0.274*[#  32]+0.155*[#  13]+0.091*[#  25]+0.091*[#  33]
          +0.052*[#  12]+0.041*[#  10]+0.014*[#  11]
    |psi|^2 = 0.994
==== e(  32) =    -2.00231 eV ====
     psi = 0.280*[#  25]+0.280*[#  33]+0.146*[#  12]+0.093*[#  24]+0.093*[#  32]
          +0.049*[#  13]+0.042*[#  11]+0.014*[#  10]
    |psi|^2 = 0.999
==== e(  33) =    -0.99319 eV ====
     psi = 0.220*[#  18]+0.183*[#  27]+0.183*[#  35]+0.154*[#  15]+0.073*[#  17]
          +0.061*[#  28]+0.061*[#  36]+0.051*[#  16]+0.001*[#  22]+0.001*[#  30]

    |psi|^2 = 0.988
==== e(  34) =    -0.90540 eV ====
     psi = 0.211*[#  17]+0.192*[#  28]+0.192*[#  36]+0.152*[#  16]+0.070*[#  18]
          +0.064*[#  27]+0.064*[#  35]+0.051*[#  15]
    |psi|^2 = 0.995
==== e(  35) =     1.86219 eV ====
     psi = 0.382*[#  19]+0.053*[#  21]+0.053*[#  29]+0.049*[#  23]+0.049*[#  31]
          +0.004*[#  24]+0.004*[#  32]+0.001*[#  25]+0.001*[#  33]+0.001*[#   9]

    |psi|^2 = 0.599
==== e(  36) =     1.99347 eV ====
     psi = 0.354*[#  20]+0.050*[#  22]+0.050*[#  30]+0.048*[#  26]+0.048*[#  34]
          +0.004*[#  27]+0.004*[#  35]+0.001*[#  28]+0.001*[#  36]+0.001*[#  14]

    |psi|^2 = 0.561
==== e(  37) =     2.65074 eV ====
     psi = 0.002*[#  24]+0.002*[#  32]+0.001*[#  21]+0.001*[#  23]+0.001*[#  29]
          +0.001*[#  31]
    |psi|^2 = 0.009
==== e(  38) =     2.71576 eV ====

    |psi|^2 = 0.001
==== e(  39) =     2.76124 eV ====
     psi = 0.002*[#  27]+0.002*[#  35]+0.001*[#  26]+0.001*[#  34]
    |psi|^2 = 0.010
==== e(  40) =     2.79356 eV ====

    |psi|^2 = 0.004

 k =   0.0250000000  0.0144337567  0.0000000000
==== e(   1) =  -105.99971 eV ====
     psi = 0.996*[#   1]+0.002*[#  23]+0.002*[#  31]
    |psi|^2 = 1.000
==== e(   2) =  -104.62916 eV ====
     psi = 0.996*[#   2]+0.002*[#  26]+0.002*[#  34]
    |psi|^2 = 1.000
==== e(   3) =   -66.47339 eV ====
     psi = 0.999*[#   3]
    |psi|^2 = 1.000
==== e(   4) =   -66.41995 eV ====
     psi = 0.750*[#   4]+0.249*[#   5]
    |psi|^2 = 1.000
==== e(   5) =   -66.41994 eV ====
     psi = 0.750*[#   5]+0.249*[#   4]
    |psi|^2 = 1.000
==== e(   6) =   -64.96404 eV ====
     psi = 0.999*[#   6]
    |psi|^2 = 1.000
==== e(   7) =   -64.95300 eV ====
     psi = 0.750*[#   7]+0.249*[#   8]
    |psi|^2 = 1.000
==== e(   8) =   -64.95300 eV ====
     psi = 0.750*[#   8]+0.249*[#   7]
    |psi|^2 = 1.000
==== e(   9) =   -15.79075 eV ====
     psi = 0.364*[#  21]+0.364*[#  29]+0.260*[#  19]+0.005*[#  23]+0.005*[#  31]
          +0.001*[#   1]
    |psi|^2 = 1.000
==== e(  10) =   -15.56584 eV ====
     psi = 0.361*[#  22]+0.361*[#  30]+0.265*[#  20]+0.005*[#  26]+0.005*[#  34]
          +0.001*[#   2]
    |psi|^2 = 1.000
==== e(  11) =   -14.85078 eV ====
     psi = 0.495*[#  21]+0.495*[#  29]+0.003*[#  23]+0.003*[#  31]
    |psi|^2 = 0.997
==== e(  12) =   -14.59447 eV ====
     psi = 0.495*[#  22]+0.495*[#  30]+0.003*[#  26]+0.003*[#  34]
    |psi|^2 = 0.997
==== e(  13) =    -6.85747 eV ====
     psi = 0.374*[#  23]+0.374*[#  31]+0.100*[#   9]+0.072*[#  19]+0.035*[#  21]
          +0.035*[#  29]+0.002*[#   1]
    |psi|^2 = 0.994
==== e(  14) =    -6.63842 eV ====
     psi = 0.380*[#  26]+0.380*[#  34]+0.077*[#  14]+0.076*[#  20]+0.039*[#  22]
          +0.039*[#  30]+0.003*[#   2]
    |psi|^2 = 0.994
==== e(  15) =    -5.82461 eV ====
     psi = 0.288*[#  13]+0.276*[#  10]+0.096*[#  12]+0.092*[#  11]+0.090*[#  24]
          +0.090*[#  32]+0.030*[#  25]+0.030*[#  33]+0.001*[#  23]+0.001*[#  31]

    |psi|^2 = 0.995
==== e(  16) =    -5.81762 eV ====
     psi = 0.288*[#  12]+0.279*[#  11]+0.096*[#  13]+0.093*[#  10]+0.089*[#  25]
          +0.089*[#  33]+0.030*[#  24]+0.030*[#  32]
    |psi|^2 = 0.995
==== e(  17) =    -4.59085 eV ====
     psi = 0.316*[#  18]+0.175*[#  27]+0.175*[#  35]+0.105*[#  17]+0.068*[#  15]
          +0.058*[#  28]+0.058*[#  36]+0.023*[#  16]+0.005*[#  26]+0.005*[#  34]

    |psi|^2 = 0.988
==== e(  18) =    -4.57072 eV ====
     psi = 0.320*[#  17]+0.176*[#  28]+0.176*[#  36]+0.107*[#  18]+0.069*[#  16]
          +0.059*[#  27]+0.059*[#  35]+0.023*[#  15]
    |psi|^2 = 0.988
==== e(  19) =    -4.29249 eV ====
     psi = 0.429*[#  10]+0.296*[#  13]+0.143*[#  11]+0.099*[#  12]+0.008*[#  24]
          +0.008*[#  32]+0.003*[#  25]+0.003*[#  33]
    |psi|^2 = 0.990
==== e(  20) =    -4.28858 eV ====
     psi = 0.425*[#  11]+0.301*[#  12]+0.142*[#  10]+0.100*[#  13]+0.008*[#  25]
          +0.008*[#  33]+0.003*[#  24]+0.003*[#  32]
    |psi|^2 = 0.990
==== e(  21) =    -3.92646 eV ====
     psi = 0.879*[#   9]+0.034*[#  23]+0.034*[#  31]+0.026*[#  19]+0.007*[#  21]
          +0.007*[#  29]+0.002*[#  24]+0.002*[#  32]
    |psi|^2 = 0.992
==== e(  22) =    -3.78298 eV ====
     psi = 0.492*[#  23]+0.492*[#  31]+0.003*[#  21]+0.003*[#  29]+0.002*[#  13]

    |psi|^2 = 0.995
==== e(  23) =    -3.53628 eV ====
     psi = 0.488*[#  26]+0.488*[#  34]+0.005*[#  18]+0.002*[#  22]+0.002*[#  30]
          +0.002*[#  27]+0.002*[#  35]+0.002*[#  17]
    |psi|^2 = 0.993
==== e(  24) =    -3.35484 eV ====
     psi = 0.516*[#  15]+0.194*[#  18]+0.172*[#  16]+0.065*[#  17]+0.012*[#  27]
          +0.012*[#  35]+0.004*[#  28]+0.004*[#  36]+0.003*[#  14]+0.001*[#  26]
          +0.001*[#  34]
    |psi|^2 = 0.986
==== e(  25) =    -3.35392 eV ====
     psi = 0.518*[#  16]+0.199*[#  17]+0.173*[#  15]+0.066*[#  18]+0.011*[#  28]
          +0.011*[#  36]+0.004*[#  27]+0.004*[#  35]
    |psi|^2 = 0.986
==== e(  26) =    -3.19924 eV ====
     psi = 0.872*[#  14]+0.026*[#  20]+0.023*[#  26]+0.023*[#  34]+0.009*[#  27]
          +0.009*[#  35]+0.006*[#  22]+0.006*[#  30]+0.003*[#  15]+0.003*[#  28]
          +0.003*[#  36]+0.002*[#  18]
    |psi|^2 = 0.987
==== e(  27) =    -2.90960 eV ====
     psi = 0.362*[#  24]+0.362*[#  32]+0.121*[#  25]+0.121*[#  33]+0.006*[#   9]
          +0.004*[#  13]+0.002*[#  23]+0.002*[#  31]+0.001*[#  12]+0.001*[#  19]

    |psi|^2 = 0.984
==== e(  28) =    -2.88744 eV ====
     psi = 0.367*[#  25]+0.367*[#  33]+0.122*[#  24]+0.122*[#  32]+0.004*[#  12]
          +0.001*[#  13]
    |psi|^2 = 0.984
==== e(  29) =    -2.64429 eV ====
     psi = 0.351*[#  27]+0.351*[#  35]+0.117*[#  28]+0.117*[#  36]+0.025*[#  14]
          +0.006*[#  18]+0.004*[#  15]+0.003*[#  26]+0.003*[#  34]+0.002*[#  17]
          +0.001*[#  16]
    |psi|^2 = 0.981
==== e(  30) =    -2.63006 eV ====
     psi = 0.363*[#  28]+0.363*[#  36]+0.121*[#  27]+0.121*[#  35]+0.006*[#  17]
          +0.004*[#  16]+0.002*[#  18]+0.001*[#  15]
    |psi|^2 = 0.980
==== e(  31) =    -2.01510 eV ====
     psi = 0.277*[#  24]+0.277*[#  32]+0.155*[#  13]+0.092*[#  25]+0.092*[#  33]
          +0.052*[#  12]+0.039*[#  10]+0.013*[#  11]
    |psi|^2 = 0.997
==== e(  32) =    -1.98977 eV ====
     psi = 0.278*[#  25]+0.278*[#  33]+0.153*[#  12]+0.093*[#  24]+0.093*[#  32]
          +0.051*[#  13]+0.039*[#  11]+0.013*[#  10]
    |psi|^2 = 0.999
==== e(  33) =    -0.91758 eV ====
     psi = 0.218*[#  18]+0.190*[#  27]+0.190*[#  35]+0.147*[#  15]+0.073*[#  17]
          +0.063*[#  28]+0.063*[#  36]+0.049*[#  16]
    |psi|^2 = 0.994
==== e(  34) =    -0.89441 eV ====
     psi = 0.216*[#  17]+0.192*[#  28]+0.192*[#  36]+0.147*[#  16]+0.072*[#  18]
          +0.064*[#  27]+0.064*[#  35]+0.049*[#  15]
    |psi|^2 = 0.996
==== e(  35) =     1.79136 eV ====
     psi = 0.397*[#  19]+0.057*[#  21]+0.057*[#  29]+0.052*[#  23]+0.052*[#  31]
          +0.001*[#   9]+0.001*[#  24]+0.001*[#  32]
    |psi|^2 = 0.620
==== e(  36) =     1.92360 eV ====
     psi = 0.370*[#  20]+0.054*[#  22]+0.054*[#  30]+0.051*[#  26]+0.051*[#  34]
          +0.002*[#  14]+0.001*[#  27]+0.001*[#  35]
    |psi|^2 = 0.584
==== e(  37) =     2.54387 eV ====
     psi = 0.001*[#  21]+0.001*[#  29]
    |psi|^2 = 0.006
==== e(  38) =     2.65158 eV ====
     psi = 0.001*[#  22]+0.001*[#  30]+0.001*[#  26]+0.001*[#  34]
    |psi|^2 = 0.008
==== e(  39) =     2.69125 eV ====

    |psi|^2 = 0.000
==== e(  40) =     2.76456 eV ====

    |psi|^2 = 0.001

 k =   0.0000000000  0.0000000000  0.0000000000
==== e(   1) =  -105.99971 eV ====
     psi = 0.996*[#   1]+0.002*[#  23]+0.002*[#  31]
    |psi|^2 = 1.000
==== e(   2) =  -104.62916 eV ====
     psi = 0.996*[#   2]+0.002*[#  26]+0.002*[#  34]
    |psi|^2 = 1.000
==== e(   3) =   -66.47339 eV ====
     psi = 0.999*[#   3]
    |psi|^2 = 1.000
==== e(   4) =   -66.41994 eV ====
     psi = 0.797*[#   4]+0.203*[#   5]
    |psi|^2 = 1.000
==== e(   5) =   -66.41994 eV ====
     psi = 0.797*[#   5]+0.203*[#   4]
    |psi|^2 = 1.000
==== e(   6) =   -64.96404 eV ====
     psi = 0.999*[#   6]
    |psi|^2 = 1.000
==== e(   7) =   -64.95299 eV ====
     psi = 0.797*[#   7]+0.203*[#   8]
    |psi|^2 = 1.000
==== e(   8) =   -64.95299 eV ====
     psi = 0.797*[#   8]+0.203*[#   7]
    |psi|^2 = 1.000
==== e(   9) =   -15.79563 eV ====
     psi = 0.364*[#  21]+0.364*[#  29]+0.261*[#  19]+0.005*[#  23]+0.005*[#  31]
          +0.001*[#   1]
    |psi|^2 = 1.000
==== e(  10) =   -15.57079 eV ====
     psi = 0.361*[#  22]+0.361*[#  30]+0.266*[#  20]+0.005*[#  26]+0.005*[#  34]
          +0.001*[#   2]
    |psi|^2 = 1.000
==== e(  11) =   -14.85348 eV ====
     psi = 0.495*[#  21]+0.495*[#  29]+0.003*[#  23]+0.003*[#  31]
    |psi|^2 = 0.997
==== e(  12) =   -14.59725 eV ====
     psi = 0.495*[#  22]+0.495*[#  30]+0.003*[#  26]+0.003*[#  34]
    |psi|^2 = 0.997
==== e(  13) =    -6.86252 eV ====
     psi = 0.374*[#  23]+0.374*[#  31]+0.100*[#   9]+0.072*[#  19]+0.035*[#  21]
          +0.035*[#  29]+0.002*[#   1]
    |psi|^2 = 0.994
==== e(  14) =    -6.64336 eV ====
     psi = 0.381*[#  26]+0.381*[#  34]+0.078*[#  14]+0.075*[#  20]+0.039*[#  22]
          +0.039*[#  30]+0.003*[#   2]
    |psi|^2 = 0.994
==== e(  15) =    -5.81816 eV ====
     psi = 0.291*[#  13]+0.280*[#  10]+0.095*[#  12]+0.092*[#  11]+0.090*[#  24]
          +0.090*[#  32]+0.029*[#  25]+0.029*[#  33]
    |psi|^2 = 0.995
==== e(  16) =    -5.81816 eV ====
     psi = 0.291*[#  12]+0.280*[#  11]+0.095*[#  13]+0.092*[#  10]+0.090*[#  25]
          +0.090*[#  33]+0.029*[#  24]+0.029*[#  32]
    |psi|^2 = 0.995
==== e(  17) =    -4.57124 eV ====
     psi = 0.324*[#  18]+0.176*[#  27]+0.176*[#  35]+0.105*[#  17]+0.069*[#  15]
          +0.057*[#  28]+0.057*[#  36]+0.023*[#  16]
    |psi|^2 = 0.988
==== e(  18) =    -4.57124 eV ====
     psi = 0.324*[#  17]+0.176*[#  28]+0.176*[#  36]+0.105*[#  18]+0.069*[#  16]
          +0.057*[#  27]+0.057*[#  35]+0.023*[#  15]
    |psi|^2 = 0.988
==== e(  19) =    -4.28568 eV ====
     psi = 0.419*[#  11]+0.295*[#  12]+0.152*[#  10]+0.107*[#  13]+0.006*[#  25]
          +0.006*[#  33]+0.002*[#  24]+0.002*[#  32]
    |psi|^2 = 0.990
==== e(  20) =    -4.28568 eV ====
     psi = 0.419*[#  10]+0.295*[#  13]+0.152*[#  11]+0.107*[#  12]+0.006*[#  24]
          +0.006*[#  32]+0.002*[#  25]+0.002*[#  33]
    |psi|^2 = 0.990
==== e(  21) =    -3.91979 eV ====
     psi = 0.885*[#   9]+0.035*[#  23]+0.035*[#  31]+0.025*[#  19]+0.006*[#  21]
          +0.006*[#  29]
    |psi|^2 = 0.993
==== e(  22) =    -3.79161 eV ====
     psi = 0.495*[#  23]+0.495*[#  31]+0.003*[#  21]+0.003*[#  29]
    |psi|^2 = 0.995
==== e(  23) =    -3.54906 eV ====
     psi = 0.494*[#  26]+0.494*[#  34]+0.003*[#  22]+0.003*[#  30]
    |psi|^2 = 0.994
==== e(  24) =    -3.34536 eV ====
     psi = 0.537*[#  15]+0.207*[#  18]+0.162*[#  16]+0.063*[#  17]+0.007*[#  27]
          +0.007*[#  35]+0.002*[#  28]+0.002*[#  36]
    |psi|^2 = 0.986
==== e(  25) =    -3.34536 eV ====
     psi = 0.537*[#  16]+0.207*[#  17]+0.162*[#  15]+0.063*[#  18]+0.007*[#  28]
          +0.007*[#  36]+0.002*[#  27]+0.002*[#  35]
    |psi|^2 = 0.986
==== e(  26) =    -3.18518 eV ====
     psi = 0.900*[#  14]+0.025*[#  20]+0.025*[#  26]+0.025*[#  34]+0.006*[#  22]
          +0.006*[#  30]
    |psi|^2 = 0.987
==== e(  27) =    -2.88152 eV ====
     psi = 0.369*[#  24]+0.369*[#  32]+0.123*[#  25]+0.123*[#  33]
    |psi|^2 = 0.984
==== e(  28) =    -2.88152 eV ====
     psi = 0.369*[#  25]+0.369*[#  33]+0.123*[#  24]+0.123*[#  32]
    |psi|^2 = 0.984
==== e(  29) =    -2.62921 eV ====
     psi = 0.368*[#  27]+0.368*[#  35]+0.122*[#  28]+0.122*[#  36]
    |psi|^2 = 0.980
==== e(  30) =    -2.62921 eV ====
     psi = 0.368*[#  28]+0.368*[#  36]+0.122*[#  27]+0.122*[#  35]
    |psi|^2 = 0.980
==== e(  31) =    -1.98543 eV ====
     psi = 0.278*[#  25]+0.278*[#  33]+0.155*[#  12]+0.093*[#  24]+0.093*[#  32]
          +0.052*[#  13]+0.038*[#  11]+0.013*[#  10]
    |psi|^2 = 0.999
==== e(  32) =    -1.98543 eV ====
     psi = 0.278*[#  24]+0.278*[#  32]+0.155*[#  13]+0.093*[#  25]+0.093*[#  33]
          +0.052*[#  12]+0.038*[#  10]+0.013*[#  11]
    |psi|^2 = 0.999
==== e(  33) =    -0.89059 eV ====
     psi = 0.216*[#  17]+0.191*[#  28]+0.191*[#  36]+0.145*[#  16]+0.074*[#  18]
          +0.065*[#  27]+0.065*[#  35]+0.049*[#  15]
    |psi|^2 = 0.996
==== e(  34) =    -0.89059 eV ====
     psi = 0.216*[#  18]+0.191*[#  27]+0.191*[#  35]+0.145*[#  15]+0.074*[#  17]
          +0.065*[#  28]+0.065*[#  36]+0.049*[#  16]
    |psi|^2 = 0.996
==== e(  35) =     1.76643 eV ====
     psi = 0.402*[#  19]+0.058*[#  21]+0.058*[#  29]+0.053*[#  23]+0.053*[#  31]
          +0.002*[#   9]
    |psi|^2 = 0.627
==== e(  36) =     1.89902 eV ====
     psi = 0.376*[#  20]+0.055*[#  22]+0.055*[#  30]+0.052*[#  26]+0.052*[#  34]
          +0.002*[#  14]
    |psi|^2 = 0.592
==== e(  37) =     2.50453 eV ====
     psi = 0.001*[#  21]+0.001*[#  29]
    |psi|^2 = 0.004
==== e(  38) =     2.60945 eV ====
     psi = 0.002*[#  22]+0.002*[#  30]+0.001*[#  26]+0.001*[#  34]
    |psi|^2 = 0.005
==== e(  39) =     2.68436 eV ====

    |psi|^2 = 0.000
==== e(  40) =     2.75758 eV ====

    |psi|^2 = 0.000

Lowdin Charges:

     Atom #   1: total charge =  17.3749, s =  2.6509, p =  5.9999, d =  8.7242,
                 spin up      =   9.2843, s =  1.3208,
                 spin up      =   9.2843, p =  2.9999,
                 spin up      =   9.2843, d =  4.9636,
                 spin down    =   8.0906, s =  1.3301,
                 spin down    =   8.0906, p =  2.9999,
                 spin down    =   8.0906, d =  3.7605,
                 polarization =   1.1938, s = -0.0093, p =  0.0000, d =  1.2031,
     Atom #   2: total charge =   7.1966, s =  1.9304, p =  5.2662, d =  0.0000,
                 spin up      =   3.8039, s =  0.9688,
                 spin up      =   3.8039, p =  2.8350,
                 spin up      =   3.8039, d =  0.0000,
                 spin down    =   3.3927, s =  0.9616,
                 spin down    =   3.3927, p =  2.4312,
                 spin down    =   3.3927, d =  0.0000,
                 polarization =   0.4111, s =  0.0073, p =  0.4038, d =  0.0000,
     Atom #   3: total charge =   7.1966, s =  1.9304, p =  5.2662, d =  0.0000,
                 spin up      =   3.8039, s =  0.9688,
                 spin up      =   3.8039, p =  2.8350,
                 spin up      =   3.8039, d =  0.0000,
                 spin down    =   3.3927, s =  0.9616,
                 spin down    =   3.3927, p =  2.4312,
                 spin down    =   3.3927, d =  0.0000,
                 polarization =   0.4111, s =  0.0073, p =  0.4038, d =  0.0000,
     Spilling Parameter:   0.0072

     PROJWFC      :      3.88s CPU      4.88s WALL


   This run was terminated on:  15:31: 7  27Jun2023

=------------------------------------------------------------------------------=
   JOB DONE.
=------------------------------------------------------------------------------=
