
     Program PWSCF v.6.8 starts on  8Mar2023 at 17: 3:34 

     This program is part of the open-source Quantum ESPRESSO suite
     for quantum simulation of materials; please cite
         "P. Giannozzi et al., J. Phys.:Condens. Matter 21 395502 (2009);
         "P. Giannozzi et al., J. Phys.:Condens. Matter 29 465901 (2017);
         "P. Giannozzi et al., J. Chem. Phys. 152 154105 (2020);
          URL http://www.quantum-espresso.org", 
     in publications or presentations arising from this work. More details at
     http://www.quantum-espresso.org/quote

     Parallel version (MPI & OpenMP), running on      80 processor cores
     Number of MPI processes:                80
     Threads/MPI process:                     1

     MPI processes distributed on     2 nodes
     R & G space division:  proc/nbgrp/npool/nimage =      80
     184360 MiB available memory on the printing compute node when the environment starts
 
     Reading input from nscf.in

     Current dimensions of program PWSCF are:
     Max number of different atomic species (ntypx) = 10
     Max number of k-points (npk) =  40000
     Max angular momentum in pseudopotentials (lmaxx) =  4

     Atomic positions and unit cell read from directory:
     ./tmp/c.save/
     Atomic positions from file used, from input discarded
 
     Message from routine setup:
     using ibrav=0 with symmetry is DISCOURAGED, use correct ibrav instead

     Subspace diagonalization in iterative solution of the eigenvalue problem:
     a serial algorithm will be used

 
     Parallelization info
     --------------------
     sticks:   dense  smooth     PW     G-vecs:    dense   smooth      PW
     Min          23      22      6                 5111     4806     684
     Max          24      23      7                 5135     4845     709
     Sum        1879    1789    499               409943   385631   55807
 
     Using Slab Decomposition
 


     bravais-lattice index     =            0
     lattice parameter (alat)  =       7.3605  a.u.
     unit-cell volume          =    2170.2486 (a.u.)^3
     number of atoms/cell      =            3
     number of atomic types    =            2
     number of electrons       =        32.00
     number of Kohn-Sham states=           20
     kinetic-energy cutoff     =     120.0000  Ry
     charge density cutoff     =     500.0000  Ry
     Exchange-correlation= PBE
                           (   1   4   3   4   0   0   0)

     celldm(1)=   7.360481  celldm(2)=   0.000000  celldm(3)=   0.000000
     celldm(4)=   0.000000  celldm(5)=   0.000000  celldm(6)=   0.000000

     crystal axes: (cart. coord. in units of alat)
               a(1) = (   1.000000   0.000000   0.000000 )  
               a(2) = (  -0.500000   0.866025   0.000000 )  
               a(3) = (   0.000000   0.000000   6.284350 )  

     reciprocal axes: (cart. coord. in units 2 pi/alat)
               b(1) = (  1.000000  0.577350  0.000000 )  
               b(2) = (  0.000000  1.154701  0.000000 )  
               b(3) = (  0.000000  0.000000  0.159125 )  


     PseudoPot. # 1 for Ni read from file:
     pseudo/Ni.upf
     MD5 check sum: 14a7e289c5fff9cacaba393040e62f02
     Pseudo is Norm-conserving + core correction, Zval = 18.0
     Generated using ONCVPSP code by D. R. Hamann
     Using radial grid of 1372 points,  6 beta functions with: 
                l(1) =   0
                l(2) =   0
                l(3) =   1
                l(4) =   1
                l(5) =   2
                l(6) =   2

     PseudoPot. # 2 for I  read from file:
     pseudo/I.upf
     MD5 check sum: 301f7009ca0a2b18b0adf53dca02d42f
     Pseudo is Norm-conserving + core correction, Zval =  7.0
     Generated using ONCVPSP code by D. R. Hamann
     Using radial grid of 1210 points,  6 beta functions with: 
                l(1) =   0
                l(2) =   0
                l(3) =   1
                l(4) =   1
                l(5) =   2
                l(6) =   2

     atomic species   valence    mass     pseudopotential
        Ni            18.00    58.69340     Ni( 1.00)
        I              7.00   126.90447     I ( 1.00)

     12 Sym. Ops., with inversion, found


                                    s                        frac. trans.

      isym =  1     identity                                     

 cryst.   s( 1) = (     1          0          0      )
                  (     0          1          0      )
                  (     0          0          1      )

 cart.    s( 1) = (  1.0000000 -0.0000000  0.0000000 )
                  (  0.0000000  1.0000000  0.0000000 )
                  (  0.0000000  0.0000000  1.0000000 )


      isym =  2     180 deg rotation - cart. axis [1,0,0]        

 cryst.   s( 2) = (     1          0          0      )
                  (    -1         -1          0      )
                  (     0          0         -1      )

 cart.    s( 2) = (  1.0000000  0.0000000  0.0000000 )
                  (  0.0000000 -1.0000000  0.0000000 )
                  (  0.0000000  0.0000000 -1.0000000 )


      isym =  3     120 deg rotation - cryst. axis [0,0,1]       

 cryst.   s( 3) = (     0          1          0      )
                  (    -1         -1          0      )
                  (     0          0          1      )

 cart.    s( 3) = ( -0.5000000 -0.8660254  0.0000000 )
                  (  0.8660254 -0.5000000  0.0000000 )
                  (  0.0000000  0.0000000  1.0000000 )


      isym =  4     120 deg rotation - cryst. axis [0,0,-1]      

 cryst.   s( 4) = (    -1         -1          0      )
                  (     1          0          0      )
                  (     0          0          1      )

 cart.    s( 4) = ( -0.5000000  0.8660254  0.0000000 )
                  ( -0.8660254 -0.5000000  0.0000000 )
                  (  0.0000000  0.0000000  1.0000000 )


      isym =  5     180 deg rotation - cryst. axis [0,1,0]       

 cryst.   s( 5) = (    -1         -1          0      )
                  (     0          1          0      )
                  (     0          0         -1      )

 cart.    s( 5) = ( -0.5000000 -0.8660254  0.0000000 )
                  ( -0.8660254  0.5000000  0.0000000 )
                  (  0.0000000  0.0000000 -1.0000000 )


      isym =  6     180 deg rotation - cryst. axis [1,1,0]       

 cryst.   s( 6) = (     0          1          0      )
                  (     1          0          0      )
                  (     0          0         -1      )

 cart.    s( 6) = ( -0.5000000  0.8660254  0.0000000 )
                  (  0.8660254  0.5000000  0.0000000 )
                  (  0.0000000  0.0000000 -1.0000000 )


      isym =  7     inversion                                    

 cryst.   s( 7) = (    -1          0          0      )
                  (     0         -1          0      )
                  (     0          0         -1      )

 cart.    s( 7) = ( -1.0000000  0.0000000  0.0000000 )
                  (  0.0000000 -1.0000000  0.0000000 )
                  (  0.0000000  0.0000000 -1.0000000 )


      isym =  8     inv. 180 deg rotation - cart. axis [1,0,0]   

 cryst.   s( 8) = (    -1          0          0      )
                  (     1          1          0      )
                  (     0          0          1      )

 cart.    s( 8) = ( -1.0000000 -0.0000000  0.0000000 )
                  (  0.0000000  1.0000000  0.0000000 )
                  (  0.0000000  0.0000000  1.0000000 )


      isym =  9     inv. 120 deg rotation - cryst. axis [0,0,1]  

 cryst.   s( 9) = (     0         -1          0      )
                  (     1          1          0      )
                  (     0          0         -1      )

 cart.    s( 9) = (  0.5000000  0.8660254  0.0000000 )
                  ( -0.8660254  0.5000000  0.0000000 )
                  (  0.0000000  0.0000000 -1.0000000 )


      isym = 10     inv. 120 deg rotation - cryst. axis [0,0,-1] 

 cryst.   s(10) = (     1          1          0      )
                  (    -1          0          0      )
                  (     0          0         -1      )

 cart.    s(10) = (  0.5000000 -0.8660254  0.0000000 )
                  (  0.8660254  0.5000000  0.0000000 )
                  (  0.0000000  0.0000000 -1.0000000 )


      isym = 11     inv. 180 deg rotation - cryst. axis [0,1,0]  

 cryst.   s(11) = (     1          1          0      )
                  (     0         -1          0      )
                  (     0          0          1      )

 cart.    s(11) = (  0.5000000  0.8660254  0.0000000 )
                  (  0.8660254 -0.5000000  0.0000000 )
                  (  0.0000000  0.0000000  1.0000000 )


      isym = 12     inv. 180 deg rotation - cryst. axis [1,1,0]  

 cryst.   s(12) = (     0         -1          0      )
                  (    -1          0          0      )
                  (     0          0          1      )

 cart.    s(12) = (  0.5000000 -0.8660254  0.0000000 )
                  ( -0.8660254 -0.5000000  0.0000000 )
                  (  0.0000000  0.0000000  1.0000000 )


   Cartesian axes

     site n.     atom                  positions (alat units)
         1           Ni  tau(   1) = (   0.0000000   0.0000000   3.1421749  )
         2           I   tau(   2) = (  -0.0000000   0.5773503   3.5289144  )
         3           I   tau(   3) = (   0.5000000   0.2886751   2.7554354  )

   Crystallographic axes

     site n.     atom                  positions (cryst. coord.)
         1           Ni  tau(   1) = (  0.0000000  0.0000000  0.5000000  )
         2           I   tau(   2) = (  0.3333333  0.6666667  0.5615401  )
         3           I   tau(   3) = (  0.6666667  0.3333333  0.4384599  )

     number of k points=    30  Marzari-Vanderbilt smearing, width (Ry)=  0.0015
                       cart. coord. in units 2pi/alat
        k(    1) = (   0.0000000   0.0000000   0.0000000), wk =   0.0078125
        k(    2) = (   0.0000000   0.0721688   0.0000000), wk =   0.0468750
        k(    3) = (   0.0000000   0.1443376   0.0000000), wk =   0.0468750
        k(    4) = (   0.0000000   0.2165064   0.0000000), wk =   0.0468750
        k(    5) = (   0.0000000   0.2886751   0.0000000), wk =   0.0468750
        k(    6) = (   0.0000000   0.3608439   0.0000000), wk =   0.0468750
        k(    7) = (   0.0000000   0.4330127   0.0000000), wk =   0.0468750
        k(    8) = (   0.0000000   0.5051815   0.0000000), wk =   0.0468750
        k(    9) = (   0.0000000  -0.5773503   0.0000000), wk =   0.0234375
        k(   10) = (   0.0625000   0.1082532   0.0000000), wk =   0.0468750
        k(   11) = (   0.0625000   0.1804220   0.0000000), wk =   0.0937500
        k(   12) = (   0.0625000   0.2525907   0.0000000), wk =   0.0937500
        k(   13) = (   0.0625000   0.3247595   0.0000000), wk =   0.0937500
        k(   14) = (   0.0625000   0.3969283   0.0000000), wk =   0.0937500
        k(   15) = (   0.0625000   0.4690971   0.0000000), wk =   0.0937500
        k(   16) = (   0.0625000   0.5412659   0.0000000), wk =   0.0937500
        k(   17) = (   0.1250000   0.2165064   0.0000000), wk =   0.0468750
        k(   18) = (   0.1250000   0.2886751   0.0000000), wk =   0.0937500
        k(   19) = (   0.1250000   0.3608439   0.0000000), wk =   0.0937500
        k(   20) = (   0.1250000   0.4330127   0.0000000), wk =   0.0937500
        k(   21) = (   0.1250000   0.5051815   0.0000000), wk =   0.0937500
        k(   22) = (   0.1250000   0.5773503   0.0000000), wk =   0.0468750
        k(   23) = (   0.1875000   0.3247595   0.0000000), wk =   0.0468750
        k(   24) = (   0.1875000   0.3969283   0.0000000), wk =   0.0937500
        k(   25) = (   0.1875000   0.4690971   0.0000000), wk =   0.0937500
        k(   26) = (   0.1875000   0.5412659   0.0000000), wk =   0.0937500
        k(   27) = (   0.2500000   0.4330127   0.0000000), wk =   0.0468750
        k(   28) = (   0.2500000   0.5051815   0.0000000), wk =   0.0937500
        k(   29) = (   0.2500000   0.5773503   0.0000000), wk =   0.0468750
        k(   30) = (   0.3125000   0.5412659   0.0000000), wk =   0.0468750

                       cryst. coord.
        k(    1) = (   0.0000000   0.0000000   0.0000000), wk =   0.0078125
        k(    2) = (   0.0000000   0.0625000   0.0000000), wk =   0.0468750
        k(    3) = (   0.0000000   0.1250000   0.0000000), wk =   0.0468750
        k(    4) = (   0.0000000   0.1875000   0.0000000), wk =   0.0468750
        k(    5) = (   0.0000000   0.2500000   0.0000000), wk =   0.0468750
        k(    6) = (   0.0000000   0.3125000   0.0000000), wk =   0.0468750
        k(    7) = (   0.0000000   0.3750000   0.0000000), wk =   0.0468750
        k(    8) = (   0.0000000   0.4375000   0.0000000), wk =   0.0468750
        k(    9) = (   0.0000000  -0.5000000   0.0000000), wk =   0.0234375
        k(   10) = (   0.0625000   0.0625000   0.0000000), wk =   0.0468750
        k(   11) = (   0.0625000   0.1250000   0.0000000), wk =   0.0937500
        k(   12) = (   0.0625000   0.1875000   0.0000000), wk =   0.0937500
        k(   13) = (   0.0625000   0.2500000   0.0000000), wk =   0.0937500
        k(   14) = (   0.0625000   0.3125000   0.0000000), wk =   0.0937500
        k(   15) = (   0.0625000   0.3750000   0.0000000), wk =   0.0937500
        k(   16) = (   0.0625000   0.4375000   0.0000000), wk =   0.0937500
        k(   17) = (   0.1250000   0.1250000   0.0000000), wk =   0.0468750
        k(   18) = (   0.1250000   0.1875000   0.0000000), wk =   0.0937500
        k(   19) = (   0.1250000   0.2500000   0.0000000), wk =   0.0937500
        k(   20) = (   0.1250000   0.3125000   0.0000000), wk =   0.0937500
        k(   21) = (   0.1250000   0.3750000   0.0000000), wk =   0.0937500
        k(   22) = (   0.1250000   0.4375000   0.0000000), wk =   0.0468750
        k(   23) = (   0.1875000   0.1875000   0.0000000), wk =   0.0468750
        k(   24) = (   0.1875000   0.2500000   0.0000000), wk =   0.0937500
        k(   25) = (   0.1875000   0.3125000   0.0000000), wk =   0.0937500
        k(   26) = (   0.1875000   0.3750000   0.0000000), wk =   0.0937500
        k(   27) = (   0.2500000   0.2500000   0.0000000), wk =   0.0468750
        k(   28) = (   0.2500000   0.3125000   0.0000000), wk =   0.0937500
        k(   29) = (   0.2500000   0.3750000   0.0000000), wk =   0.0468750
        k(   30) = (   0.3125000   0.3125000   0.0000000), wk =   0.0468750

     Dense  grid:   409943 G-vectors     FFT dimensions: (  54,  54, 360)

     Smooth grid:   385631 G-vectors     FFT dimensions: (  54,  54, 324)

     Dynamical RAM for                 wfc:       0.18 MB

     Dynamical RAM for     wfc (w. buffer):       0.18 MB

     Dynamical RAM for           str. fact:       0.16 MB

     Dynamical RAM for           local pot:       0.00 MB

     Dynamical RAM for          nlocal pot:       0.50 MB

     Dynamical RAM for                qrad:       3.59 MB

     Dynamical RAM for          rho,v,vnew:       0.57 MB

     Dynamical RAM for           G-vectors:       0.33 MB

     Dynamical RAM for          h,s,v(r/c):       0.07 MB

     Dynamical RAM for          <psi|beta>:       0.02 MB

     Dynamical RAM for                 psi:       0.37 MB

     Dynamical RAM for                hpsi:       0.37 MB

     Dynamical RAM for      wfcinit/wfcrot:       0.38 MB

     Estimated static dynamical RAM per process >       6.11 MB

     Estimated max dynamical RAM per process >       6.94 MB

     Estimated total dynamical RAM >     554.92 MB

     The potential is recalculated from file :
     ./tmp/c.save/charge-density

     Starting wfcs are   18 randomized atomic wfcs +    2 random wfcs

     Band Structure Calculation
     Davidson diagonalization with overlap

     Computing kpt #:     1  of    30
     total cpu time spent up to now is        2.0 secs

     Computing kpt #:     2  of    30
     total cpu time spent up to now is        2.3 secs

     Computing kpt #:     3  of    30
     total cpu time spent up to now is        2.6 secs

     Computing kpt #:     4  of    30
     total cpu time spent up to now is        3.0 secs

     Computing kpt #:     5  of    30
     total cpu time spent up to now is        3.4 secs

     Computing kpt #:     6  of    30
     total cpu time spent up to now is        3.7 secs

     Computing kpt #:     7  of    30
     total cpu time spent up to now is        4.0 secs

     Computing kpt #:     8  of    30
     total cpu time spent up to now is        4.3 secs

     Computing kpt #:     9  of    30
     total cpu time spent up to now is        4.6 secs

     Computing kpt #:    10  of    30
     total cpu time spent up to now is        5.3 secs

     Computing kpt #:    11  of    30
     total cpu time spent up to now is        5.6 secs

     Computing kpt #:    12  of    30
     total cpu time spent up to now is        6.0 secs

     Computing kpt #:    13  of    30
     total cpu time spent up to now is        6.3 secs

     Computing kpt #:    14  of    30
     total cpu time spent up to now is        6.6 secs

     Computing kpt #:    15  of    30
     total cpu time spent up to now is        6.9 secs

     Computing kpt #:    16  of    30
     total cpu time spent up to now is        7.2 secs

     Computing kpt #:    17  of    30
     total cpu time spent up to now is        7.5 secs

     Computing kpt #:    18  of    30
     total cpu time spent up to now is        8.4 secs

     Computing kpt #:    19  of    30
     total cpu time spent up to now is        8.8 secs

     Computing kpt #:    20  of    30
     total cpu time spent up to now is        9.1 secs

     Computing kpt #:    21  of    30
     total cpu time spent up to now is        9.4 secs

     Computing kpt #:    22  of    30
     total cpu time spent up to now is        9.7 secs

     Computing kpt #:    23  of    30
     total cpu time spent up to now is        9.9 secs

     Computing kpt #:    24  of    30
     total cpu time spent up to now is       10.2 secs

     Computing kpt #:    25  of    30
     total cpu time spent up to now is       10.6 secs

     Computing kpt #:    26  of    30
     total cpu time spent up to now is       10.9 secs

     Computing kpt #:    27  of    30
     total cpu time spent up to now is       11.2 secs

     Computing kpt #:    28  of    30
     total cpu time spent up to now is       11.5 secs

     Computing kpt #:    29  of    30
     total cpu time spent up to now is       11.8 secs

     Computing kpt #:    30  of    30
     total cpu time spent up to now is       12.0 secs

     ethr =  3.12E-09,  avg # of iterations = 33.2

     total cpu time spent up to now is       12.0 secs

     End of band structure calculation

          k = 0.0000 0.0000 0.0000 ( 48107 PWs)   bands (ev):

  -104.6349 -65.0290 -65.0276 -65.0276 -15.7534 -14.8305  -6.7390  -4.8353
    -4.8353  -3.7411  -3.2556  -3.2556  -2.9998  -2.8299  -2.8299  -1.3059
    -1.3059   1.8451   2.5770   2.7242

     occupation numbers 
     1.0000   1.0000   1.0000   1.0000   1.0000   1.0000   1.0000   1.0000
     1.0000   1.0000   1.0000   1.0000   1.0000   1.0000   1.0000   0.0000
     0.0000   0.0000   0.0000   0.0000

          k = 0.0000 0.0722 0.0000 ( 48113 PWs)   bands (ev):

  -104.6349 -65.0290 -65.0276 -65.0276 -15.7233 -14.8136  -6.7085  -4.9367
    -4.8338  -3.6705  -3.4229  -3.3447  -3.1215  -2.7886  -2.7646  -1.4618
    -1.3347   1.9861   2.7586   2.8168

     occupation numbers 
     1.0000   1.0000   1.0000   1.0000   1.0000   1.0000   1.0000   1.0000
     1.0000   1.0000   1.0000   1.0000   1.0000   1.0000   1.0000   0.0000
     0.0000   0.0000   0.0000   0.0000

          k = 0.0000 0.1443 0.0000 ( 48142 PWs)   bands (ev):

  -104.6349 -65.0290 -65.0277 -65.0276 -15.6352 -14.7650  -6.6228  -5.1840
    -4.8295  -3.9648  -3.5392  -3.5354  -3.1702  -2.7385  -2.7303  -1.7948
    -1.4021   2.3080   2.8665   3.0855

     occupation numbers 
     1.0000   1.0000   1.0000   1.0000   1.0000   1.0000   1.0000   1.0000
     1.0000   1.0000   1.0000   1.0000   1.0000   1.0000   1.0000   1.0447
     0.0000   0.0000   0.0000   0.0000

          k = 0.0000 0.2165 0.0000 ( 48158 PWs)   bands (ev):

  -104.6349 -65.0290 -65.0278 -65.0276 -15.4954 -14.6922  -6.5067  -5.5132
    -4.8235  -4.5998  -3.7532  -3.5046  -3.1973  -2.7421  -2.7355  -2.0524
    -1.4689   2.6075   2.7174   3.0645

     occupation numbers 
     1.0000   1.0000   1.0000   1.0000   1.0000   1.0000   1.0000   1.0000
     1.0000   1.0000   1.0000   1.0000   1.0000   1.0000   1.0000   1.0000
     0.0000   0.0000   0.0000   0.0000

          k = 0.0000 0.2887 0.0000 ( 48148 PWs)   bands (ev):

  -104.6349 -65.0290 -65.0279 -65.0277 -15.3152 -14.6073  -6.4461  -5.8907
    -5.0977  -4.8169  -3.9646  -3.6688  -3.2220  -2.8009  -2.7664  -2.0780
    -1.5100   2.1339   2.9950   3.2864

     occupation numbers 
     1.0000   1.0000   1.0000   1.0000   1.0000   1.0000   1.0000   1.0000
     1.0000   1.0000   1.0000   1.0000   1.0000   1.0000   1.0000   1.0000
     0.0000   0.0000   0.0000   0.0000

          k = 0.0000 0.3608 0.0000 ( 48214 PWs)   bands (ev):

  -104.6349 -65.0290 -65.0280 -65.0277 -15.1119 -14.5277  -6.6678  -6.1666
    -5.2814  -4.8104  -4.1496  -3.9463  -3.2442  -2.8867  -2.8132  -1.9531
    -1.5262   1.6760   3.1443   3.5523

     occupation numbers 
     1.0000   1.0000   1.0000   1.0000   1.0000   1.0000   1.0000   1.0000
     1.0000   1.0000   1.0000   1.0000   1.0000   1.0000   1.0000   1.0000
     0.0000   0.0000   0.0000   0.0000

          k = 0.0000 0.4330 0.0000 ( 48212 PWs)   bands (ev):

  -104.6349 -65.0290 -65.0280 -65.0277 -14.9102 -14.4735  -7.0643  -6.3512
    -5.1781  -4.8040  -4.2943  -4.2205  -3.2629  -2.9681  -2.8780  -1.8071
    -1.5287   1.3322   3.1368   3.5957

     occupation numbers 
     1.0000   1.0000   1.0000   1.0000   1.0000   1.0000   1.0000   1.0000
     1.0000   1.0000   1.0000   1.0000   1.0000   1.0000   1.0000   1.0701
     0.0000   0.0000   0.0000   0.0000

          k = 0.0000 0.5052 0.0000 ( 48214 PWs)   bands (ev):

  -104.6349 -65.0290 -65.0281 -65.0277 -14.7434 -14.4594  -7.3600  -6.4937
    -4.9667  -4.7982  -4.4542  -4.3876  -3.2766  -3.0236  -2.9432  -1.7062
    -1.5271   1.1292   3.0618   3.6448

     occupation numbers 
     1.0000   1.0000   1.0000   1.0000   1.0000   1.0000   1.0000   1.0000
     1.0000   1.0000   1.0000   1.0000   1.0000   1.0000   1.0000   0.0000
     0.0000   0.0000   0.0000   0.0000

          k = 0.0000-0.5774 0.0000 ( 48254 PWs)   bands (ev):

  -104.6349 -65.0290 -65.0281 -65.0277 -14.6686 -14.4688  -7.4660  -6.5471
    -4.8126  -4.7956  -4.6011  -4.4202  -3.2822  -3.0431  -2.9720  -1.6717
    -1.5261   1.0641   3.0220   3.8180

     occupation numbers 
     1.0000   1.0000   1.0000   1.0000   1.0000   1.0000   1.0000   1.0000
     1.0000   1.0000   1.0000   1.0000   1.0000   1.0000   1.0000   0.0000
     0.0000   0.0000   0.0000   0.0000

          k = 0.0625 0.1083 0.0000 ( 48119 PWs)   bands (ev):

  -104.6349 -65.0290 -65.0276 -65.0276 -15.6642 -14.7808  -6.6502  -5.1049
    -4.8342  -3.7748  -3.5744  -3.5180  -3.1486  -2.7487  -2.7350  -1.6700
    -1.4157   2.2158   2.8347   3.1890

     occupation numbers 
     1.0000   1.0000   1.0000   1.0000   1.0000   1.0000   1.0000   1.0000
     1.0000   1.0000   1.0000   1.0000   1.0000   1.0000   1.0000   0.0000
     0.0000   0.0000   0.0000   0.0000

          k = 0.0625 0.1804 0.0000 ( 48136 PWs)   bands (ev):

  -104.6349 -65.0290 -65.0277 -65.0276 -15.5502 -14.7200  -6.5476  -5.3757
    -4.8389  -4.3486  -3.7509  -3.4905  -3.1624  -2.7383  -2.7285  -1.9117
    -1.5307   2.5505   2.9466   3.0777

     occupation numbers 
     1.0000   1.0000   1.0000   1.0000   1.0000   1.0000   1.0000   1.0000
     1.0000   1.0000   1.0000   1.0000   1.0000   1.0000   1.0000   1.0000
     0.0000   0.0000   0.0000   0.0000

          k = 0.0625 0.2526 0.0000 ( 48148 PWs)   bands (ev):

  -104.6349 -65.0290 -65.0278 -65.0276 -15.3900 -14.6408  -6.4471  -5.7119
    -4.9165  -4.8455  -3.9761  -3.5652  -3.1791  -2.7671  -2.7523  -2.0413
    -1.5965   2.5249   2.9206   3.1785

     occupation numbers 
     1.0000   1.0000   1.0000   1.0000   1.0000   1.0000   1.0000   1.0000
     1.0000   1.0000   1.0000   1.0000   1.0000   1.0000   1.0000   1.0000
     0.0000   0.0000   0.0000   0.0000

          k = 0.0625 0.3248 0.0000 ( 48173 PWs)   bands (ev):

  -104.6349 -65.0290 -65.0279 -65.0277 -15.1977 -14.5579  -6.5040  -6.0480
    -5.2475  -4.8559  -4.1802  -3.8042  -3.1940  -2.8393  -2.7872  -2.0052
    -1.6115   2.0400   3.1762   3.4461

     occupation numbers 
     1.0000   1.0000   1.0000   1.0000   1.0000   1.0000   1.0000   1.0000
     1.0000   1.0000   1.0000   1.0000   1.0000   1.0000   1.0000   1.0000
     0.0000   0.0000   0.0000   0.0000

          k = 0.0625 0.3969 0.0000 ( 48195 PWs)   bands (ev):

  -104.6349 -65.0290 -65.0280 -65.0277 -14.9942 -14.4900  -6.8509  -6.2572
    -5.2544  -4.8600  -4.3588  -4.0849  -3.2044  -2.9314  -2.8369  -1.8890
    -1.6027   1.6319   3.2716   3.6878

     occupation numbers 
     1.0000   1.0000   1.0000   1.0000   1.0000   1.0000   1.0000   1.0000
     1.0000   1.0000   1.0000   1.0000   1.0000   1.0000   1.0000   1.0000
     0.0000   0.0000   0.0000   0.0000

          k = 0.0625 0.4691 0.0000 ( 48179 PWs)   bands (ev):

  -104.6349 -65.0290 -65.0281 -65.0277 -14.8074 -14.4559  -7.2076  -6.4189
    -5.0825  -4.8484  -4.5121  -4.3256  -3.2120  -3.0033  -2.9011  -1.7748
    -1.5973   1.3516   3.2782   3.6977

     occupation numbers 
     1.0000   1.0000   1.0000   1.0000   1.0000   1.0000   1.0000   1.0000
     1.0000   1.0000   1.0000   1.0000   1.0000   1.0000   1.0000   0.4470
     0.0000   0.0000   0.0000   0.0000

          k = 0.0625 0.5413 0.0000 ( 48239 PWs)   bands (ev):

  -104.6349 -65.0290 -65.0281 -65.0277 -14.6786 -14.4598  -7.4107  -6.5143
    -4.9011  -4.8242  -4.6067  -4.5084  -3.2196  -3.0324  -2.9551  -1.6952
    -1.6118   1.2148   3.2440   3.8066

     occupation numbers 
     1.0000   1.0000   1.0000   1.0000   1.0000   1.0000   1.0000   1.0000
     1.0000   1.0000   1.0000   1.0000   1.0000   1.0000   1.0000   0.0000
     0.0000   0.0000   0.0000   0.0000

          k = 0.1250 0.2165 0.0000 ( 48125 PWs)   bands (ev):

  -104.6349 -65.0290 -65.0278 -65.0276 -15.4156 -14.6526  -6.4538  -5.6267
    -4.8758  -4.8183  -4.0386  -3.5249  -3.1496  -2.7575  -2.7467  -1.9132
    -1.7539   2.8418   2.9778   3.0932

     occupation numbers 
     1.0000   1.0000   1.0000   1.0000   1.0000   1.0000   1.0000   1.0000
     1.0000   1.0000   1.0000   1.0000   1.0000   1.0000   1.0000   1.0000
     0.0318   0.0000   0.0000   0.0000

          k = 0.1250 0.2887 0.0000 ( 48141 PWs)   bands (ev):

  -104.6349 -65.0290 -65.0279 -65.0277 -15.2428 -14.5745  -6.4283  -5.9139
    -5.2059  -4.9316  -4.2874  -3.7023  -3.1443  -2.8009  -2.7696  -1.9693
    -1.7960   2.5665   3.2110   3.3146

     occupation numbers 
     1.0000   1.0000   1.0000   1.0000   1.0000   1.0000   1.0000   1.0000
     1.0000   1.0000   1.0000   1.0000   1.0000   1.0000   1.0000   1.0000
     1.0585   0.0000   0.0000   0.0000

          k = 0.1250 0.3608 0.0000 ( 48162 PWs)   bands (ev):

  -104.6349 -65.0290 -65.0280 -65.0277 -15.0489 -14.5017  -6.6337  -6.1641
    -5.3146  -4.9862  -4.4955  -3.9668  -3.1363  -2.8923  -2.7950  -1.9978
    -1.7234   2.1556   3.3542   3.7158

     occupation numbers 
     1.0000   1.0000   1.0000   1.0000   1.0000   1.0000   1.0000   1.0000
     1.0000   1.0000   1.0000   1.0000   1.0000   1.0000   1.0000   1.0000
     0.0000   0.0000   0.0000   0.0000

          k = 0.1250 0.4330 0.0000 ( 48177 PWs)   bands (ev):

  -104.6349 -65.0290 -65.0280 -65.0277 -14.8574 -14.4527  -6.9844  -6.3274
    -5.2330  -4.9893  -4.6785  -4.2275  -3.1232  -2.9834  -2.8419  -1.9456
    -1.6783   1.8104   3.4955   4.0046

     occupation numbers 
     1.0000   1.0000   1.0000   1.0000   1.0000   1.0000   1.0000   1.0000
     1.0000   1.0000   1.0000   1.0000   1.0000   1.0000   1.0000   1.0000
     0.0000   0.0000   0.0000   0.0000

          k = 0.1250 0.5052 0.0000 ( 48212 PWs)   bands (ev):

  -104.6349 -65.0290 -65.0281 -65.0278 -14.6998 -14.4411  -7.2545  -6.4324
    -5.1736  -4.8893  -4.7993  -4.4480  -3.1257  -3.0202  -2.8993  -1.8673
    -1.6846   1.5948   3.6455   4.0684

     occupation numbers 
     1.0000   1.0000   1.0000   1.0000   1.0000   1.0000   1.0000   1.0000
     1.0000   1.0000   1.0000   1.0000   1.0000   1.0000   1.0000   1.0000
     0.0000   0.0000   0.0000   0.0000

          k = 0.1250 0.5774 0.0000 ( 48240 PWs)   bands (ev):

  -104.6349 -65.0289 -65.0281 -65.0278 -14.6287 -14.4510  -7.3524  -6.4694
    -5.1588  -4.9095  -4.6598  -4.6361  -3.1387  -3.0078  -2.9357  -1.8170
    -1.7108   1.5237   3.7176   4.1480

     occupation numbers 
     1.0000   1.0000   1.0000   1.0000   1.0000   1.0000   1.0000   1.0000
     1.0000   1.0000   1.0000   1.0000   1.0000   1.0000   1.0000   1.0270
     0.0000   0.0000   0.0000   0.0000

          k = 0.1875 0.3248 0.0000 ( 48145 PWs)   bands (ev):

  -104.6349 -65.0290 -65.0279 -65.0277 -15.0679 -14.5060  -6.5363  -6.1118
    -5.3644  -5.0458  -4.5518  -3.9162  -3.1152  -2.8741  -2.7731  -2.0641
    -1.7676   2.5138   3.2411   3.7177

     occupation numbers 
     1.0000   1.0000   1.0000   1.0000   1.0000   1.0000   1.0000   1.0000
     1.0000   1.0000   1.0000   1.0000   1.0000   1.0000   1.0000   1.0000
     0.2249   0.0000   0.0000   0.0000

          k = 0.1875 0.3969 0.0000 ( 48173 PWs)   bands (ev):

  -104.6349 -65.0290 -65.0280 -65.0278 -14.8847 -14.4510  -6.7797  -6.2734
    -5.4279  -5.0674  -4.7623  -4.1647  -3.0819  -2.9647  -2.7958  -2.1060
    -1.7100   2.2694   3.3490   4.1727

     occupation numbers 
     1.0000   1.0000   1.0000   1.0000   1.0000   1.0000   1.0000   1.0000
     1.0000   1.0000   1.0000   1.0000   1.0000   1.0000   1.0000   1.0000
     0.0000   0.0000   0.0000   0.0000

          k = 0.1875 0.4691 0.0000 ( 48158 PWs)   bands (ev):

  -104.6349 -65.0290 -65.0280 -65.0278 -14.7183 -14.4252  -7.0409  -6.3557
    -5.5238  -4.9455  -4.9238  -4.3905  -3.0652  -3.0154  -2.8377  -2.0649
    -1.7138   2.0163   3.5843   4.4588

     occupation numbers 
     1.0000   1.0000   1.0000   1.0000   1.0000   1.0000   1.0000   1.0000
     1.0000   1.0000   1.0000   1.0000   1.0000   1.0000   1.0000   1.0000
     0.0000   0.0000   0.0000   0.0000

          k = 0.1875 0.5413 0.0000 ( 48174 PWs)   bands (ev):

  -104.6349 -65.0289 -65.0281 -65.0278 -14.6028 -14.4326  -7.1989  -6.3822
    -5.5982  -5.0317  -4.7594  -4.5802  -3.1011  -2.9774  -2.8839  -2.0010
    -1.7583   1.8746   3.9138   4.3453

     occupation numbers 
     1.0000   1.0000   1.0000   1.0000   1.0000   1.0000   1.0000   1.0000
     1.0000   1.0000   1.0000   1.0000   1.0000   1.0000   1.0000   1.0000
     0.0652   0.0000   0.0000   0.0000

          k = 0.2500 0.4330 0.0000 ( 48187 PWs)   bands (ev):

  -104.6349 -65.0290 -65.0280 -65.0278 -14.7254 -14.4192  -6.9144  -6.3410
    -5.6830  -4.9764  -4.9628  -4.3697  -3.0447  -3.0136  -2.8113  -2.1443
    -1.7254   2.2217   3.4332   4.6885

     occupation numbers 
     1.0000   1.0000   1.0000   1.0000   1.0000   1.0000   1.0000   1.0000
     1.0000   1.0000   1.0000   1.0000   1.0000   1.0000   1.0000   1.0000
     0.0000   0.0000   0.0000   0.0000

          k = 0.2500 0.5052 0.0000 ( 48229 PWs)   bands (ev):

  -104.6349 -65.0289 -65.0280 -65.0279 -14.5944 -14.4173  -7.0203  -6.3317
    -5.9089  -5.1414  -4.8175  -4.5388  -3.0873  -2.9599  -2.8422  -2.1029
    -1.7966   2.0957   3.7271   4.6274

     occupation numbers 
     1.0000   1.0000   1.0000   1.0000   1.0000   1.0000   1.0000   1.0000
     1.0000   1.0000   1.0000   1.0000   1.0000   1.0000   1.0000   1.0000
     1.0633   0.0000   0.0000   0.0000

          k = 0.2500 0.5774 0.0000 ( 48231 PWs)   bands (ev):

  -104.6349 -65.0289 -65.0280 -65.0279 -14.5311 -14.4329  -7.0621  -6.2964
    -6.0140  -5.2069  -4.7020  -4.6550  -3.1045  -2.9229  -2.8687  -2.0561
    -1.8546   2.0392   4.0840   4.2376

     occupation numbers 
     1.0000   1.0000   1.0000   1.0000   1.0000   1.0000   1.0000   1.0000
     1.0000   1.0000   1.0000   1.0000   1.0000   1.0000   1.0000   1.0000
     1.0000   0.0000   0.0000   0.0000

          k = 0.3125 0.5413 0.0000 ( 48231 PWs)   bands (ev):

  -104.6349 -65.0289 -65.0280 -65.0279 -14.5016 -14.4371  -6.9610  -6.2792
    -6.1817  -5.2922  -4.7213  -4.6394  -3.1066  -2.9029  -2.8610  -2.0493
    -1.9157   2.0829   4.0352   4.3977

     occupation numbers 
     1.0000   1.0000   1.0000   1.0000   1.0000   1.0000   1.0000   1.0000
     1.0000   1.0000   1.0000   1.0000   1.0000   1.0000   1.0000   1.0000
     1.0000   0.0000   0.0000   0.0000

     the Fermi energy is    -1.7735 ev
     (compare with:    -1.7806 eV, computed in scf)

     Writing output data file ./tmp/c.save/
 
     init_run     :      0.92s CPU      0.98s WALL (       1 calls)
     electrons    :     10.28s CPU     10.41s WALL (       1 calls)

     Called by init_run:
     wfcinit      :      0.00s CPU      0.00s WALL (       1 calls)
     wfcinit:atom :      0.01s CPU      0.01s WALL (      30 calls)
     wfcinit:wfcr :      0.53s CPU      0.53s WALL (      30 calls)
     potinit      :      0.03s CPU      0.09s WALL (       1 calls)
     hinit0       :      0.77s CPU      0.78s WALL (       1 calls)

     Called by electrons:
     c_bands      :     10.27s CPU     10.41s WALL (       1 calls)
     v_of_rho     :      0.02s CPU      0.02s WALL (       1 calls)
     v_h          :      0.00s CPU      0.00s WALL (       1 calls)
     v_xc         :      0.02s CPU      0.02s WALL (       1 calls)

     Called by c_bands:
     init_us_2    :      0.02s CPU      0.02s WALL (      30 calls)
     cegterg      :      8.42s CPU      8.52s WALL (      62 calls)

     Called by sum_band:

     Called by *egterg:
     cdiaghg      :      0.70s CPU      0.72s WALL (    1025 calls)
     cegterg:over :      0.27s CPU      0.28s WALL (     995 calls)
     cegterg:upda :      0.07s CPU      0.08s WALL (     995 calls)
     cegterg:last :      0.11s CPU      0.11s WALL (     484 calls)
     h_psi        :      7.54s CPU      7.63s WALL (    1087 calls)
     g_psi        :      0.02s CPU      0.03s WALL (     995 calls)

     Called by h_psi:
     h_psi:calbec :      0.29s CPU      0.29s WALL (    1087 calls)
     vloc_psi     :      7.12s CPU      7.19s WALL (    1087 calls)
     add_vuspsi   :      0.11s CPU      0.11s WALL (    1087 calls)

     General routines
     calbec       :      0.28s CPU      0.28s WALL (    1087 calls)
     fft          :      0.06s CPU      0.06s WALL (      12 calls)
     ffts         :      0.00s CPU      0.00s WALL (       1 calls)
     fftw         :      6.78s CPU      6.86s WALL (   19626 calls)
     interpolate  :      0.00s CPU      0.00s WALL (       1 calls)
     davcio       :      0.01s CPU      0.02s WALL (      60 calls)
 
     Parallel routines
 
     PWSCF        :     13.38s CPU     16.07s WALL

 
   This run was terminated on:  17: 3:50   8Mar2023            

=------------------------------------------------------------------------------=
   JOB DONE.
=------------------------------------------------------------------------------=
