
     Program PWSCF v.6.8 starts on  8Mar2023 at 17: 3:40 

     This program is part of the open-source Quantum ESPRESSO suite
     for quantum simulation of materials; please cite
         "P. Giannozzi et al., J. Phys.:Condens. Matter 21 395502 (2009);
         "P. Giannozzi et al., J. Phys.:Condens. Matter 29 465901 (2017);
         "P. Giannozzi et al., J. Chem. Phys. 152 154105 (2020);
          URL http://www.quantum-espresso.org", 
     in publications or presentations arising from this work. More details at
     http://www.quantum-espresso.org/quote

     Parallel version (MPI & OpenMP), running on      80 processor cores
     Number of MPI processes:                80
     Threads/MPI process:                     1

     MPI processes distributed on     2 nodes
     R & G space division:  proc/nbgrp/npool/nimage =      80
     86145 MiB available memory on the printing compute node when the environment starts
 
     Reading input from nscf.in

     Current dimensions of program PWSCF are:
     Max number of different atomic species (ntypx) = 10
     Max number of k-points (npk) =  40000
     Max angular momentum in pseudopotentials (lmaxx) =  4

     Atomic positions and unit cell read from directory:
     ./tmp/csp.save/
     Atomic positions from file used, from input discarded
 
     Message from routine setup:
     using ibrav=0 with symmetry is DISCOURAGED, use correct ibrav instead

     Subspace diagonalization in iterative solution of the eigenvalue problem:
     a serial algorithm will be used

 
     Parallelization info
     --------------------
     sticks:   dense  smooth     PW     G-vecs:    dense   smooth      PW
     Min          23      22      6                 5111     4806     684
     Max          24      23      7                 5135     4845     709
     Sum        1879    1789    499               409943   385631   55807
 
     Using Slab Decomposition
 


     bravais-lattice index     =            0
     lattice parameter (alat)  =       7.3605  a.u.
     unit-cell volume          =    2170.2486 (a.u.)^3
     number of atoms/cell      =            3
     number of atomic types    =            2
     number of electrons       =        32.00
     number of Kohn-Sham states=           20
     kinetic-energy cutoff     =     120.0000  Ry
     charge density cutoff     =     500.0000  Ry
     Exchange-correlation= PBE
                           (   1   4   3   4   0   0   0)

     celldm(1)=   7.360481  celldm(2)=   0.000000  celldm(3)=   0.000000
     celldm(4)=   0.000000  celldm(5)=   0.000000  celldm(6)=   0.000000

     crystal axes: (cart. coord. in units of alat)
               a(1) = (   1.000000   0.000000   0.000000 )  
               a(2) = (  -0.500000   0.866025   0.000000 )  
               a(3) = (   0.000000   0.000000   6.284350 )  

     reciprocal axes: (cart. coord. in units 2 pi/alat)
               b(1) = (  1.000000  0.577350  0.000000 )  
               b(2) = (  0.000000  1.154701  0.000000 )  
               b(3) = (  0.000000  0.000000  0.159125 )  


     PseudoPot. # 1 for Ni read from file:
     pseudo/Ni.upf
     MD5 check sum: 14a7e289c5fff9cacaba393040e62f02
     Pseudo is Norm-conserving + core correction, Zval = 18.0
     Generated using ONCVPSP code by D. R. Hamann
     Using radial grid of 1372 points,  6 beta functions with: 
                l(1) =   0
                l(2) =   0
                l(3) =   1
                l(4) =   1
                l(5) =   2
                l(6) =   2

     PseudoPot. # 2 for I  read from file:
     pseudo/I.upf
     MD5 check sum: 301f7009ca0a2b18b0adf53dca02d42f
     Pseudo is Norm-conserving + core correction, Zval =  7.0
     Generated using ONCVPSP code by D. R. Hamann
     Using radial grid of 1210 points,  6 beta functions with: 
                l(1) =   0
                l(2) =   0
                l(3) =   1
                l(4) =   1
                l(5) =   2
                l(6) =   2

     atomic species   valence    mass     pseudopotential
        Ni            18.00    58.69340     Ni( 1.00)
        I              7.00   126.90447     I ( 1.00)

     Starting magnetic structure 
     atomic species   magnetization
        Ni           0.278
        I            0.100

     12 Sym. Ops., with inversion, found


                                    s                        frac. trans.

      isym =  1     identity                                     

 cryst.   s( 1) = (     1          0          0      )
                  (     0          1          0      )
                  (     0          0          1      )

 cart.    s( 1) = (  1.0000000 -0.0000000  0.0000000 )
                  (  0.0000000  1.0000000  0.0000000 )
                  (  0.0000000  0.0000000  1.0000000 )


      isym =  2     180 deg rotation - cart. axis [1,0,0]        

 cryst.   s( 2) = (     1          0          0      )
                  (    -1         -1          0      )
                  (     0          0         -1      )

 cart.    s( 2) = (  1.0000000  0.0000000  0.0000000 )
                  (  0.0000000 -1.0000000  0.0000000 )
                  (  0.0000000  0.0000000 -1.0000000 )


      isym =  3     120 deg rotation - cryst. axis [0,0,1]       

 cryst.   s( 3) = (     0          1          0      )
                  (    -1         -1          0      )
                  (     0          0          1      )

 cart.    s( 3) = ( -0.5000000 -0.8660254  0.0000000 )
                  (  0.8660254 -0.5000000  0.0000000 )
                  (  0.0000000  0.0000000  1.0000000 )


      isym =  4     120 deg rotation - cryst. axis [0,0,-1]      

 cryst.   s( 4) = (    -1         -1          0      )
                  (     1          0          0      )
                  (     0          0          1      )

 cart.    s( 4) = ( -0.5000000  0.8660254  0.0000000 )
                  ( -0.8660254 -0.5000000  0.0000000 )
                  (  0.0000000  0.0000000  1.0000000 )


      isym =  5     180 deg rotation - cryst. axis [0,1,0]       

 cryst.   s( 5) = (    -1         -1          0      )
                  (     0          1          0      )
                  (     0          0         -1      )

 cart.    s( 5) = ( -0.5000000 -0.8660254  0.0000000 )
                  ( -0.8660254  0.5000000  0.0000000 )
                  (  0.0000000  0.0000000 -1.0000000 )


      isym =  6     180 deg rotation - cryst. axis [1,1,0]       

 cryst.   s( 6) = (     0          1          0      )
                  (     1          0          0      )
                  (     0          0         -1      )

 cart.    s( 6) = ( -0.5000000  0.8660254  0.0000000 )
                  (  0.8660254  0.5000000  0.0000000 )
                  (  0.0000000  0.0000000 -1.0000000 )


      isym =  7     inversion                                    

 cryst.   s( 7) = (    -1          0          0      )
                  (     0         -1          0      )
                  (     0          0         -1      )

 cart.    s( 7) = ( -1.0000000  0.0000000  0.0000000 )
                  (  0.0000000 -1.0000000  0.0000000 )
                  (  0.0000000  0.0000000 -1.0000000 )


      isym =  8     inv. 180 deg rotation - cart. axis [1,0,0]   

 cryst.   s( 8) = (    -1          0          0      )
                  (     1          1          0      )
                  (     0          0          1      )

 cart.    s( 8) = ( -1.0000000 -0.0000000  0.0000000 )
                  (  0.0000000  1.0000000  0.0000000 )
                  (  0.0000000  0.0000000  1.0000000 )


      isym =  9     inv. 120 deg rotation - cryst. axis [0,0,1]  

 cryst.   s( 9) = (     0         -1          0      )
                  (     1          1          0      )
                  (     0          0         -1      )

 cart.    s( 9) = (  0.5000000  0.8660254  0.0000000 )
                  ( -0.8660254  0.5000000  0.0000000 )
                  (  0.0000000  0.0000000 -1.0000000 )


      isym = 10     inv. 120 deg rotation - cryst. axis [0,0,-1] 

 cryst.   s(10) = (     1          1          0      )
                  (    -1          0          0      )
                  (     0          0         -1      )

 cart.    s(10) = (  0.5000000 -0.8660254  0.0000000 )
                  (  0.8660254  0.5000000  0.0000000 )
                  (  0.0000000  0.0000000 -1.0000000 )


      isym = 11     inv. 180 deg rotation - cryst. axis [0,1,0]  

 cryst.   s(11) = (     1          1          0      )
                  (     0         -1          0      )
                  (     0          0          1      )

 cart.    s(11) = (  0.5000000  0.8660254  0.0000000 )
                  (  0.8660254 -0.5000000  0.0000000 )
                  (  0.0000000  0.0000000  1.0000000 )


      isym = 12     inv. 180 deg rotation - cryst. axis [1,1,0]  

 cryst.   s(12) = (     0         -1          0      )
                  (    -1          0          0      )
                  (     0          0          1      )

 cart.    s(12) = (  0.5000000 -0.8660254  0.0000000 )
                  ( -0.8660254 -0.5000000  0.0000000 )
                  (  0.0000000  0.0000000  1.0000000 )


   Cartesian axes

     site n.     atom                  positions (alat units)
         1           Ni  tau(   1) = (   0.0000000   0.0000000   3.1421749  )
         2           I   tau(   2) = (  -0.0000000   0.5773503   3.5289144  )
         3           I   tau(   3) = (   0.5000000   0.2886751   2.7554354  )

   Crystallographic axes

     site n.     atom                  positions (cryst. coord.)
         1           Ni  tau(   1) = (  0.0000000  0.0000000  0.5000000  )
         2           I   tau(   2) = (  0.3333333  0.6666667  0.5615401  )
         3           I   tau(   3) = (  0.6666667  0.3333333  0.4384599  )

     number of k points=    30  Marzari-Vanderbilt smearing, width (Ry)=  0.0015
                       cart. coord. in units 2pi/alat
        k(    1) = (   0.0000000   0.0000000   0.0000000), wk =   0.0039062
        k(    2) = (   0.0000000   0.0721688   0.0000000), wk =   0.0234375
        k(    3) = (   0.0000000   0.1443376   0.0000000), wk =   0.0234375
        k(    4) = (   0.0000000   0.2165064   0.0000000), wk =   0.0234375
        k(    5) = (   0.0000000   0.2886751   0.0000000), wk =   0.0234375
        k(    6) = (   0.0000000   0.3608439   0.0000000), wk =   0.0234375
        k(    7) = (   0.0000000   0.4330127   0.0000000), wk =   0.0234375
        k(    8) = (   0.0000000   0.5051815   0.0000000), wk =   0.0234375
        k(    9) = (   0.0000000  -0.5773503   0.0000000), wk =   0.0117188
        k(   10) = (   0.0625000   0.1082532   0.0000000), wk =   0.0234375
        k(   11) = (   0.0625000   0.1804220   0.0000000), wk =   0.0468750
        k(   12) = (   0.0625000   0.2525907   0.0000000), wk =   0.0468750
        k(   13) = (   0.0625000   0.3247595   0.0000000), wk =   0.0468750
        k(   14) = (   0.0625000   0.3969283   0.0000000), wk =   0.0468750
        k(   15) = (   0.0625000   0.4690971   0.0000000), wk =   0.0468750
        k(   16) = (   0.0625000   0.5412659   0.0000000), wk =   0.0468750
        k(   17) = (   0.1250000   0.2165064   0.0000000), wk =   0.0234375
        k(   18) = (   0.1250000   0.2886751   0.0000000), wk =   0.0468750
        k(   19) = (   0.1250000   0.3608439   0.0000000), wk =   0.0468750
        k(   20) = (   0.1250000   0.4330127   0.0000000), wk =   0.0468750
        k(   21) = (   0.1250000   0.5051815   0.0000000), wk =   0.0468750
        k(   22) = (   0.1250000   0.5773503   0.0000000), wk =   0.0234375
        k(   23) = (   0.1875000   0.3247595   0.0000000), wk =   0.0234375
        k(   24) = (   0.1875000   0.3969283   0.0000000), wk =   0.0468750
        k(   25) = (   0.1875000   0.4690971   0.0000000), wk =   0.0468750
        k(   26) = (   0.1875000   0.5412659   0.0000000), wk =   0.0468750
        k(   27) = (   0.2500000   0.4330127   0.0000000), wk =   0.0234375
        k(   28) = (   0.2500000   0.5051815   0.0000000), wk =   0.0468750
        k(   29) = (   0.2500000   0.5773503   0.0000000), wk =   0.0234375
        k(   30) = (   0.3125000   0.5412659   0.0000000), wk =   0.0234375

                       cryst. coord.
        k(    1) = (   0.0000000   0.0000000   0.0000000), wk =   0.0039062
        k(    2) = (   0.0000000   0.0625000   0.0000000), wk =   0.0234375
        k(    3) = (   0.0000000   0.1250000   0.0000000), wk =   0.0234375
        k(    4) = (   0.0000000   0.1875000   0.0000000), wk =   0.0234375
        k(    5) = (   0.0000000   0.2500000   0.0000000), wk =   0.0234375
        k(    6) = (   0.0000000   0.3125000   0.0000000), wk =   0.0234375
        k(    7) = (   0.0000000   0.3750000   0.0000000), wk =   0.0234375
        k(    8) = (   0.0000000   0.4375000   0.0000000), wk =   0.0234375
        k(    9) = (   0.0000000  -0.5000000   0.0000000), wk =   0.0117188
        k(   10) = (   0.0625000   0.0625000   0.0000000), wk =   0.0234375
        k(   11) = (   0.0625000   0.1250000   0.0000000), wk =   0.0468750
        k(   12) = (   0.0625000   0.1875000   0.0000000), wk =   0.0468750
        k(   13) = (   0.0625000   0.2500000   0.0000000), wk =   0.0468750
        k(   14) = (   0.0625000   0.3125000   0.0000000), wk =   0.0468750
        k(   15) = (   0.0625000   0.3750000   0.0000000), wk =   0.0468750
        k(   16) = (   0.0625000   0.4375000   0.0000000), wk =   0.0468750
        k(   17) = (   0.1250000   0.1250000   0.0000000), wk =   0.0234375
        k(   18) = (   0.1250000   0.1875000   0.0000000), wk =   0.0468750
        k(   19) = (   0.1250000   0.2500000   0.0000000), wk =   0.0468750
        k(   20) = (   0.1250000   0.3125000   0.0000000), wk =   0.0468750
        k(   21) = (   0.1250000   0.3750000   0.0000000), wk =   0.0468750
        k(   22) = (   0.1250000   0.4375000   0.0000000), wk =   0.0234375
        k(   23) = (   0.1875000   0.1875000   0.0000000), wk =   0.0234375
        k(   24) = (   0.1875000   0.2500000   0.0000000), wk =   0.0468750
        k(   25) = (   0.1875000   0.3125000   0.0000000), wk =   0.0468750
        k(   26) = (   0.1875000   0.3750000   0.0000000), wk =   0.0468750
        k(   27) = (   0.2500000   0.2500000   0.0000000), wk =   0.0234375
        k(   28) = (   0.2500000   0.3125000   0.0000000), wk =   0.0468750
        k(   29) = (   0.2500000   0.3750000   0.0000000), wk =   0.0234375
        k(   30) = (   0.3125000   0.3125000   0.0000000), wk =   0.0234375

     Dense  grid:   409943 G-vectors     FFT dimensions: (  54,  54, 360)

     Smooth grid:   385631 G-vectors     FFT dimensions: (  54,  54, 324)

     Dynamical RAM for                 wfc:       0.18 MB

     Dynamical RAM for     wfc (w. buffer):       0.18 MB

     Dynamical RAM for           str. fact:       0.16 MB

     Dynamical RAM for           local pot:       0.00 MB

     Dynamical RAM for          nlocal pot:       0.50 MB

     Dynamical RAM for                qrad:       3.59 MB

     Dynamical RAM for          rho,v,vnew:       1.14 MB

     Dynamical RAM for           G-vectors:       0.33 MB

     Dynamical RAM for          h,s,v(r/c):       0.07 MB

     Dynamical RAM for          <psi|beta>:       0.02 MB

     Dynamical RAM for                 psi:       0.37 MB

     Dynamical RAM for                hpsi:       0.37 MB

     Dynamical RAM for      wfcinit/wfcrot:       0.38 MB

     Estimated static dynamical RAM per process >       6.79 MB

     Estimated max dynamical RAM per process >       7.62 MB

     Estimated total dynamical RAM >     609.24 MB
     Generating pointlists ...
     new r_m :   0.2867 (alat units)  2.1099 (a.u.) for type    1
     new r_m :   0.2867 (alat units)  2.1099 (a.u.) for type    2

     The potential is recalculated from file :
     ./tmp/csp.save/charge-density

     Starting wfcs are   18 randomized atomic wfcs +    2 random wfcs

     Band Structure Calculation
     Davidson diagonalization with overlap

     Computing kpt #:     1  of    60
     total cpu time spent up to now is        1.9 secs

     Computing kpt #:     2  of    60
     total cpu time spent up to now is        2.2 secs

     Computing kpt #:     3  of    60
     total cpu time spent up to now is        2.5 secs

     Computing kpt #:     4  of    60
     total cpu time spent up to now is        2.9 secs

     Computing kpt #:     5  of    60
     total cpu time spent up to now is        3.2 secs

     Computing kpt #:     6  of    60
     total cpu time spent up to now is        3.6 secs

     Computing kpt #:     7  of    60
     total cpu time spent up to now is        3.9 secs

     Computing kpt #:     8  of    60
     total cpu time spent up to now is        4.2 secs

     Computing kpt #:     9  of    60
     total cpu time spent up to now is        4.4 secs

     Computing kpt #:    10  of    60
     total cpu time spent up to now is        4.8 secs

     Computing kpt #:    11  of    60
     total cpu time spent up to now is        5.2 secs

     Computing kpt #:    12  of    60
     total cpu time spent up to now is        5.5 secs

     Computing kpt #:    13  of    60
     total cpu time spent up to now is        6.0 secs

     Computing kpt #:    14  of    60
     total cpu time spent up to now is        6.3 secs

     Computing kpt #:    15  of    60
     total cpu time spent up to now is        6.6 secs

     Computing kpt #:    16  of    60
     total cpu time spent up to now is        6.9 secs

     Computing kpt #:    17  of    60
     total cpu time spent up to now is        7.2 secs

     Computing kpt #:    18  of    60
     total cpu time spent up to now is        7.4 secs

     Computing kpt #:    19  of    60
     total cpu time spent up to now is        7.7 secs

     Computing kpt #:    20  of    60
     total cpu time spent up to now is        8.0 secs

     Computing kpt #:    21  of    60
     total cpu time spent up to now is        8.3 secs

     Computing kpt #:    22  of    60
     total cpu time spent up to now is        8.6 secs

     Computing kpt #:    23  of    60
     total cpu time spent up to now is        8.8 secs

     Computing kpt #:    24  of    60
     total cpu time spent up to now is        9.1 secs

     Computing kpt #:    25  of    60
     total cpu time spent up to now is        9.4 secs

     Computing kpt #:    26  of    60
     total cpu time spent up to now is        9.7 secs

     Computing kpt #:    27  of    60
     total cpu time spent up to now is       10.0 secs

     Computing kpt #:    28  of    60
     total cpu time spent up to now is       10.3 secs

     Computing kpt #:    29  of    60
     total cpu time spent up to now is       10.6 secs

     Computing kpt #:    30  of    60
     total cpu time spent up to now is       10.8 secs

     Computing kpt #:    31  of    60
     total cpu time spent up to now is       11.1 secs

     Computing kpt #:    32  of    60
     total cpu time spent up to now is       11.4 secs

     Computing kpt #:    33  of    60
     total cpu time spent up to now is       11.7 secs

     Computing kpt #:    34  of    60
     total cpu time spent up to now is       12.0 secs

     Computing kpt #:    35  of    60
     total cpu time spent up to now is       12.5 secs

     Computing kpt #:    36  of    60
     total cpu time spent up to now is       12.8 secs

     Computing kpt #:    37  of    60
     total cpu time spent up to now is       13.1 secs

     Computing kpt #:    38  of    60
     total cpu time spent up to now is       13.4 secs

     Computing kpt #:    39  of    60
     total cpu time spent up to now is       13.7 secs

     Computing kpt #:    40  of    60
     total cpu time spent up to now is       14.1 secs

     Computing kpt #:    41  of    60
     total cpu time spent up to now is       14.4 secs

     Computing kpt #:    42  of    60
     total cpu time spent up to now is       16.0 secs

     Computing kpt #:    43  of    60
     total cpu time spent up to now is       16.9 secs

     Computing kpt #:    44  of    60
     total cpu time spent up to now is       17.3 secs

     Computing kpt #:    45  of    60
     total cpu time spent up to now is       17.8 secs

     Computing kpt #:    46  of    60
     total cpu time spent up to now is       18.1 secs

     Computing kpt #:    47  of    60
     total cpu time spent up to now is       18.4 secs

     Computing kpt #:    48  of    60
     total cpu time spent up to now is       18.7 secs

     Computing kpt #:    49  of    60
     total cpu time spent up to now is       19.0 secs

     Computing kpt #:    50  of    60
     total cpu time spent up to now is       19.3 secs

     Computing kpt #:    51  of    60
     total cpu time spent up to now is       19.7 secs

     Computing kpt #:    52  of    60
     total cpu time spent up to now is       20.1 secs

     Computing kpt #:    53  of    60
     total cpu time spent up to now is       20.5 secs

     Computing kpt #:    54  of    60
     total cpu time spent up to now is       20.7 secs

     Computing kpt #:    55  of    60
     total cpu time spent up to now is       21.0 secs

     Computing kpt #:    56  of    60
     total cpu time spent up to now is       21.3 secs

     Computing kpt #:    57  of    60
     total cpu time spent up to now is       21.6 secs

     Computing kpt #:    58  of    60
     total cpu time spent up to now is       21.8 secs

     Computing kpt #:    59  of    60
     total cpu time spent up to now is       22.2 secs

     Computing kpt #:    60  of    60
     total cpu time spent up to now is       23.0 secs

     ethr =  3.12E-09,  avg # of iterations = 33.5

     total cpu time spent up to now is       23.0 secs

     End of band structure calculation

 ------ SPIN UP ------------


          k = 0.0000 0.0000 0.0000 ( 48107 PWs)   bands (ev):

  -106.0025 -66.4761 -66.4227 -66.4227 -15.7961 -14.8538  -6.8631  -5.8201
    -5.8201  -4.2880  -4.2880  -3.9219  -3.7919  -2.8819  -2.8819  -1.9864
    -1.9864   1.7661   2.5039   2.6845

     occupation numbers 
     1.0000   1.0000   1.0000   1.0000   1.0000   1.0000   1.0000   1.0000
     1.0000   1.0000   1.0000   1.0000   1.0000   1.0000   1.0000   1.0000
     1.0000   0.0000   0.0000   0.0000

          k = 0.0000 0.0722 0.0000 ( 48113 PWs)   bands (ev):

  -106.0025 -66.4761 -66.4227 -66.4227 -15.7657 -14.8371  -6.8319  -5.8593
    -5.8167  -4.3348  -4.3057  -3.9641  -3.7404  -3.0403  -2.9190  -2.1624
    -2.0122   1.9115   2.7033   2.7537

     occupation numbers 
     1.0000   1.0000   1.0000   1.0000   1.0000   1.0000   1.0000   1.0000
     1.0000   1.0000   1.0000   1.0000   1.0000   1.0000   1.0000   1.0000
     1.0000   0.0000   0.0000   0.0000

          k = 0.0000 0.1443 0.0000 ( 48142 PWs)   bands (ev):

  -106.0025 -66.4761 -66.4228 -66.4227 -15.6767 -14.7895  -6.7438  -5.9645
    -5.8076  -4.5498  -4.3534  -4.0722  -3.6188  -3.3270  -3.0299  -2.5806
    -2.0733   2.2366   2.8213   2.9546

     occupation numbers 
     1.0000   1.0000   1.0000   1.0000   1.0000   1.0000   1.0000   1.0000
     1.0000   1.0000   1.0000   1.0000   1.0000   1.0000   1.0000   1.0000
     1.0000   0.0000   0.0000   0.0000

          k = 0.0000 0.2165 0.0000 ( 48158 PWs)   bands (ev):

  -106.0025 -66.4761 -66.4228 -66.4227 -15.5354 -14.7180  -6.6227  -6.1110
    -5.7952  -5.0240  -4.4169  -4.1573  -3.5583  -3.5304  -3.2057  -2.9650
    -2.1391   2.4327   2.6707   3.0045

     occupation numbers 
     1.0000   1.0000   1.0000   1.0000   1.0000   1.0000   1.0000   1.0000
     1.0000   1.0000   1.0000   1.0000   1.0000   1.0000   1.0000   1.0000
     1.0000   0.0000   0.0000   0.0000

          k = 0.0000 0.2887 0.0000 ( 48148 PWs)   bands (ev):

  -106.0025 -66.4761 -66.4229 -66.4227 -15.3532 -14.6349  -6.5566  -6.2797
    -5.7831  -5.5191  -4.4771  -4.2142  -3.9059  -3.6037  -3.4222  -2.9607
    -2.1918   1.9536   2.9322   3.2258

     occupation numbers 
     1.0000   1.0000   1.0000   1.0000   1.0000   1.0000   1.0000   1.0000
     1.0000   1.0000   1.0000   1.0000   1.0000   1.0000   1.0000   1.0000
     1.0000   0.0000   0.0000   0.0000

          k = 0.0000 0.3608 0.0000 ( 48214 PWs)   bands (ev):

  -106.0025 -66.4761 -66.4230 -66.4228 -15.1476 -14.5573  -6.7880  -6.4084
    -5.7748  -5.6978  -4.5158  -4.3669  -4.2056  -3.6893  -3.6479  -2.7983
    -2.2284   1.4904   3.0591   3.4810

     occupation numbers 
     1.0000   1.0000   1.0000   1.0000   1.0000   1.0000   1.0000   1.0000
     1.0000   1.0000   1.0000   1.0000   1.0000   1.0000   1.0000   1.0000
     1.0000   0.0000   0.0000   0.0000

          k = 0.0000 0.4330 0.0000 ( 48212 PWs)   bands (ev):

  -106.0025 -66.4760 -66.4231 -66.4228 -14.9431 -14.5052  -7.1856  -6.5088
    -5.7716  -5.6322  -4.6219  -4.5224  -4.2599  -3.8532  -3.7915  -2.6534
    -2.2519   1.1362   3.0531   3.4996

     occupation numbers 
     1.0000   1.0000   1.0000   1.0000   1.0000   1.0000   1.0000   1.0000
     1.0000   1.0000   1.0000   1.0000   1.0000   1.0000   1.0000   1.0000
     1.0000   0.0000   0.0000   0.0000

          k = 0.0000 0.5052 0.0000 ( 48214 PWs)   bands (ev):

  -106.0025 -66.4760 -66.4231 -66.4228 -14.7733 -14.4938  -7.4834  -6.5822
    -5.7718  -5.5835  -4.6847  -4.5019  -4.3017  -4.0085  -3.8963  -2.5650
    -2.2648   0.9209   2.9927   3.5352

     occupation numbers 
     1.0000   1.0000   1.0000   1.0000   1.0000   1.0000   1.0000   1.0000
     1.0000   1.0000   1.0000   1.0000   1.0000   1.0000   1.0000   1.0000
     1.0000   0.0000   0.0000   0.0000

          k = 0.0000-0.5774 0.0000 ( 48254 PWs)   bands (ev):

  -106.0025 -66.4760 -66.4232 -66.4228 -14.6959 -14.5055  -7.5906  -6.6090
    -5.7724  -5.5819  -4.6557  -4.4853  -4.3307  -4.0711  -3.9456  -2.5366
    -2.2690   0.8500   2.9585   3.6786

     occupation numbers 
     1.0000   1.0000   1.0000   1.0000   1.0000   1.0000   1.0000   1.0000
     1.0000   1.0000   1.0000   1.0000   1.0000   1.0000   1.0000   1.0000
     1.0000   0.0000   0.0000   0.0000

          k = 0.0625 0.1083 0.0000 ( 48119 PWs)   bands (ev):

  -106.0025 -66.4761 -66.4227 -66.4227 -15.7061 -14.8049  -6.7721  -5.9296
    -5.8124  -4.4128  -4.3943  -4.0386  -3.6532  -3.2484  -3.0255  -2.3879
    -2.1048   2.1453   2.7899   3.1082

     occupation numbers 
     1.0000   1.0000   1.0000   1.0000   1.0000   1.0000   1.0000   1.0000
     1.0000   1.0000   1.0000   1.0000   1.0000   1.0000   1.0000   1.0000
     1.0000   0.0000   0.0000   0.0000

          k = 0.0625 0.1804 0.0000 ( 48136 PWs)   bands (ev):

  -106.0025 -66.4761 -66.4228 -66.4227 -15.5909 -14.7453  -6.6657  -6.0500
    -5.8076  -4.7543  -4.5057  -4.1082  -3.5460  -3.4557  -3.2440  -2.6805
    -2.2263   2.4710   2.8662   2.9528

     occupation numbers 
     1.0000   1.0000   1.0000   1.0000   1.0000   1.0000   1.0000   1.0000
     1.0000   1.0000   1.0000   1.0000   1.0000   1.0000   1.0000   1.0000
     1.0000   0.0000   0.0000   0.0000

          k = 0.0625 0.2526 0.0000 ( 48148 PWs)   bands (ev):

  -106.0025 -66.4761 -66.4229 -66.4227 -15.4289 -14.6676  -6.5586  -6.2001
    -5.8062  -5.2706  -4.6090  -4.1412  -3.7255  -3.5743  -3.3691  -2.8928
    -2.2934   2.3375   2.8725   3.1181

     occupation numbers 
     1.0000   1.0000   1.0000   1.0000   1.0000   1.0000   1.0000   1.0000
     1.0000   1.0000   1.0000   1.0000   1.0000   1.0000   1.0000   1.0000
     1.0000   0.0000   0.0000   0.0000

          k = 0.0625 0.3248 0.0000 ( 48173 PWs)   bands (ev):

  -106.0025 -66.4761 -66.4230 -66.4228 -15.2345 -14.5866  -6.6195  -6.3509
    -5.8066  -5.6210  -4.6976  -4.1723  -4.1048  -3.6758  -3.5170  -2.8524
    -2.3259   1.8554   3.1008   3.3893

     occupation numbers 
     1.0000   1.0000   1.0000   1.0000   1.0000   1.0000   1.0000   1.0000
     1.0000   1.0000   1.0000   1.0000   1.0000   1.0000   1.0000   1.0000
     1.0000   0.0000   0.0000   0.0000

          k = 0.0625 0.3969 0.0000 ( 48195 PWs)   bands (ev):

  -106.0025 -66.4761 -66.4231 -66.4228 -15.0284 -14.5207  -6.9721  -6.4572
    -5.7849  -5.6578  -4.7575  -4.4686  -4.1597  -3.8193  -3.6757  -2.7248
    -2.3427   1.4425   3.1831   3.6109

     occupation numbers 
     1.0000   1.0000   1.0000   1.0000   1.0000   1.0000   1.0000   1.0000
     1.0000   1.0000   1.0000   1.0000   1.0000   1.0000   1.0000   1.0000
     1.0000   0.0000   0.0000   0.0000

          k = 0.0625 0.4691 0.0000 ( 48179 PWs)   bands (ev):

  -106.0025 -66.4760 -66.4231 -66.4228 -14.8389 -14.4888  -7.3302  -6.5421
    -5.7777  -5.5894  -4.7803  -4.6586  -4.1606  -3.9747  -3.7997  -2.6172
    -2.3588   1.1527   3.2006   3.5986

     occupation numbers 
     1.0000   1.0000   1.0000   1.0000   1.0000   1.0000   1.0000   1.0000
     1.0000   1.0000   1.0000   1.0000   1.0000   1.0000   1.0000   1.0000
     1.0000   0.0000   0.0000   0.0000

          k = 0.0625 0.5413 0.0000 ( 48239 PWs)   bands (ev):

  -106.0025 -66.4760 -66.4232 -66.4228 -14.7069 -14.4954  -7.5350  -6.5896
    -5.7723  -5.5747  -4.7843  -4.6796  -4.1836  -4.0485  -3.8942  -2.5522
    -2.3787   1.0073   3.1796   3.6926

     occupation numbers 
     1.0000   1.0000   1.0000   1.0000   1.0000   1.0000   1.0000   1.0000
     1.0000   1.0000   1.0000   1.0000   1.0000   1.0000   1.0000   1.0000
     1.0000   0.0000   0.0000   0.0000

          k = 0.1250 0.2165 0.0000 ( 48125 PWs)   bands (ev):

  -106.0025 -66.4761 -66.4229 -66.4227 -15.4548 -14.6792  -6.5662  -6.1637
    -5.8241  -5.0542  -4.7955  -4.1070  -3.6559  -3.5638  -3.3916  -2.6586
    -2.5168   2.6566   2.9089   3.0421

     occupation numbers 
     1.0000   1.0000   1.0000   1.0000   1.0000   1.0000   1.0000   1.0000
     1.0000   1.0000   1.0000   1.0000   1.0000   1.0000   1.0000   1.0000
     1.0000   0.0000   0.0000   0.0000

          k = 0.1250 0.2887 0.0000 ( 48141 PWs)   bands (ev):

  -106.0025 -66.4761 -66.4229 -66.4228 -15.2801 -14.6027  -6.5386  -6.2918
    -5.8474  -5.4295  -4.9834  -4.0990  -3.9692  -3.6741  -3.4182  -2.8025
    -2.5588   2.3674   3.1447   3.2694

     occupation numbers 
     1.0000   1.0000   1.0000   1.0000   1.0000   1.0000   1.0000   1.0000
     1.0000   1.0000   1.0000   1.0000   1.0000   1.0000   1.0000   1.0000
     1.0000   0.0000   0.0000   0.0000

          k = 0.1250 0.3608 0.0000 ( 48162 PWs)   bands (ev):

  -106.0025 -66.4761 -66.4230 -66.4228 -15.0840 -14.5317  -6.7558  -6.4058
    -5.8264  -5.6141  -5.0896  -4.3075  -4.0862  -3.8097  -3.5471  -2.8423
    -2.5097   1.9658   3.2718   3.6687

     occupation numbers 
     1.0000   1.0000   1.0000   1.0000   1.0000   1.0000   1.0000   1.0000
     1.0000   1.0000   1.0000   1.0000   1.0000   1.0000   1.0000   1.0000
     1.0000   0.0000   0.0000   0.0000

          k = 0.1250 0.4330 0.0000 ( 48177 PWs)   bands (ev):

  -106.0025 -66.4760 -66.4231 -66.4228 -14.8901 -14.4845  -7.1078  -6.4895
    -5.8051  -5.5914  -5.1539  -4.5959  -4.0638  -3.9586  -3.6778  -2.7872
    -2.4900   1.6200   3.4105   3.9404

     occupation numbers 
     1.0000   1.0000   1.0000   1.0000   1.0000   1.0000   1.0000   1.0000
     1.0000   1.0000   1.0000   1.0000   1.0000   1.0000   1.0000   1.0000
     1.0000   0.0000   0.0000   0.0000

          k = 0.1250 0.5052 0.0000 ( 48212 PWs)   bands (ev):

  -106.0025 -66.4760 -66.4231 -66.4228 -14.7299 -14.4749  -7.3785  -6.5425
    -5.7836  -5.5521  -5.2168  -4.7267  -4.0800  -4.0234  -3.7856  -2.7049
    -2.5206   1.3986   3.5749   3.9804

     occupation numbers 
     1.0000   1.0000   1.0000   1.0000   1.0000   1.0000   1.0000   1.0000
     1.0000   1.0000   1.0000   1.0000   1.0000   1.0000   1.0000   1.0000
     1.0000   0.0000   0.0000   0.0000

          k = 0.1250 0.5774 0.0000 ( 48240 PWs)   bands (ev):

  -106.0025 -66.4760 -66.4231 -66.4228 -14.6567 -14.4866  -7.4769  -6.5604
    -5.7597  -5.5629  -5.2482  -4.7394  -4.1268  -3.9949  -3.8410  -2.6403
    -2.5692   1.3240   3.6656   4.0164

     occupation numbers 
     1.0000   1.0000   1.0000   1.0000   1.0000   1.0000   1.0000   1.0000
     1.0000   1.0000   1.0000   1.0000   1.0000   1.0000   1.0000   1.0000
     1.0000   0.0000   0.0000   0.0000

          k = 0.1875 0.3248 0.0000 ( 48145 PWs)   bands (ev):

  -106.0025 -66.4761 -66.4230 -66.4228 -15.1032 -14.5357  -6.6586  -6.3786
    -5.8534  -5.5212  -5.3092  -4.2282  -4.0651  -3.8068  -3.4686  -2.9497
    -2.5689   2.3081   3.1782   3.6710

     occupation numbers 
     1.0000   1.0000   1.0000   1.0000   1.0000   1.0000   1.0000   1.0000
     1.0000   1.0000   1.0000   1.0000   1.0000   1.0000   1.0000   1.0000
     1.0000   0.0000   0.0000   0.0000

          k = 0.1875 0.3969 0.0000 ( 48173 PWs)   bands (ev):

  -106.0025 -66.4760 -66.4231 -66.4228 -14.9180 -14.4822  -6.9085  -6.4494
    -5.8590  -5.5690  -5.4451  -4.5152  -4.0351  -3.9408  -3.5788  -3.0144
    -2.5301   2.0727   3.2787   4.1232

     occupation numbers 
     1.0000   1.0000   1.0000   1.0000   1.0000   1.0000   1.0000   1.0000
     1.0000   1.0000   1.0000   1.0000   1.0000   1.0000   1.0000   1.0000
     1.0000   0.0000   0.0000   0.0000

          k = 0.1875 0.4691 0.0000 ( 48158 PWs)   bands (ev):

  -106.0025 -66.4760 -66.4231 -66.4229 -14.7497 -14.4576  -7.1668  -6.4925
    -5.8738  -5.5601  -5.5051  -4.7613  -4.0556  -3.9764  -3.6915  -2.9675
    -2.5531   1.8230   3.5112   4.3878

     occupation numbers 
     1.0000   1.0000   1.0000   1.0000   1.0000   1.0000   1.0000   1.0000
     1.0000   1.0000   1.0000   1.0000   1.0000   1.0000   1.0000   1.0000
     1.0000   0.0000   0.0000   0.0000

          k = 0.1875 0.5413 0.0000 ( 48174 PWs)   bands (ev):

  -106.0025 -66.4760 -66.4231 -66.4229 -14.6323 -14.4665  -7.3231  -6.5123
    -5.8066  -5.6628  -5.5160  -4.8714  -4.0993  -3.9298  -3.7764  -2.8928
    -2.6148   1.6796   3.8471   4.2689

     occupation numbers 
     1.0000   1.0000   1.0000   1.0000   1.0000   1.0000   1.0000   1.0000
     1.0000   1.0000   1.0000   1.0000   1.0000   1.0000   1.0000   1.0000
     1.0000   0.0000   0.0000   0.0000

          k = 0.2500 0.4330 0.0000 ( 48187 PWs)   bands (ev):

  -106.0025 -66.4760 -66.4231 -66.4229 -14.7572 -14.4512  -7.0449  -6.4672
    -6.0013  -5.6266  -5.4958  -4.7727  -4.0551  -3.9556  -3.6474  -3.0856
    -2.5637   2.0235   3.3663   4.6342

     occupation numbers 
     1.0000   1.0000   1.0000   1.0000   1.0000   1.0000   1.0000   1.0000
     1.0000   1.0000   1.0000   1.0000   1.0000   1.0000   1.0000   1.0000
     1.0000   0.0000   0.0000   0.0000

          k = 0.2500 0.5052 0.0000 ( 48229 PWs)   bands (ev):

  -106.0025 -66.4760 -66.4231 -66.4229 -14.6251 -14.4498  -7.1452  -6.4701
    -6.1381  -5.6501  -5.4719  -5.0098  -4.0883  -3.8964  -3.7264  -3.0351
    -2.6543   1.9002   3.6543   4.5525

     occupation numbers 
     1.0000   1.0000   1.0000   1.0000   1.0000   1.0000   1.0000   1.0000
     1.0000   1.0000   1.0000   1.0000   1.0000   1.0000   1.0000   1.0000
     1.0000   0.0000   0.0000   0.0000

          k = 0.2500 0.5774 0.0000 ( 48231 PWs)   bands (ev):

  -106.0025 -66.4760 -66.4231 -66.4230 -14.5611 -14.4658  -7.1835  -6.4743
    -6.1763  -5.6319  -5.4930  -5.1005  -4.0964  -3.8523  -3.7749  -2.9758
    -2.7252   1.8442   3.9999   4.1704

     occupation numbers 
     1.0000   1.0000   1.0000   1.0000   1.0000   1.0000   1.0000   1.0000
     1.0000   1.0000   1.0000   1.0000   1.0000   1.0000   1.0000   1.0000
     1.0000   0.0000   0.0000   0.0000

          k = 0.3125 0.5413 0.0000 ( 48231 PWs)   bands (ev):

  -106.0025 -66.4760 -66.4231 -66.4230 -14.5325 -14.4689  -7.0777  -6.4485
    -6.3934  -5.5511  -5.4523  -5.2732  -4.0937  -3.8285  -3.7709  -2.9666
    -2.7977   1.8883   3.9554   4.3168

     occupation numbers 
     1.0000   1.0000   1.0000   1.0000   1.0000   1.0000   1.0000   1.0000
     1.0000   1.0000   1.0000   1.0000   1.0000   1.0000   1.0000   1.0000
     1.0000   0.0000   0.0000   0.0000

 ------ SPIN DOWN ----------


          k = 0.0000 0.0000 0.0000 ( 48107 PWs)   bands (ev):

  -104.6318 -64.9666 -64.9556 -64.9556 -15.5713 -14.5976  -6.6440  -4.5726
    -4.5726  -3.5494  -3.3475  -3.3475  -3.1872  -2.6297  -2.6297  -0.8919
    -0.8919   1.8987   2.6087   2.7577

     occupation numbers 
     1.0000   1.0000   1.0000   1.0000   1.0000   1.0000   1.0000   1.0000
     1.0000   1.0000   1.0000   1.0000   1.0000   1.0000   1.0000   0.0000
     0.0000   0.0000   0.0000   0.0000

          k = 0.0000 0.0722 0.0000 ( 48113 PWs)   bands (ev):

  -104.6318 -64.9666 -64.9556 -64.9556 -15.5405 -14.5804  -6.6134  -4.6872
    -4.5694  -3.4831  -3.4325  -3.3990  -3.2528  -2.7052  -2.6365  -1.0465
    -0.9145   2.0422   2.7919   2.8577

     occupation numbers 
     1.0000   1.0000   1.0000   1.0000   1.0000   1.0000   1.0000   1.0000
     1.0000   1.0000   1.0000   1.0000   1.0000   1.0000   1.0000   0.0000
     0.0000   0.0000   0.0000   0.0000

          k = 0.0000 0.1443 0.0000 ( 48142 PWs)   bands (ev):

  -104.6318 -64.9666 -64.9557 -64.9556 -15.4501 -14.5311  -6.5279  -4.9645
    -4.5603  -3.8688  -3.5317  -3.3520  -3.2998  -2.7988  -2.6713  -1.3617
    -0.9668   2.3655   2.9052   3.1000

     occupation numbers 
     1.0000   1.0000   1.0000   1.0000   1.0000   1.0000   1.0000   1.0000
     1.0000   1.0000   1.0000   1.0000   1.0000   1.0000   1.0000   0.0000
     0.0000   0.0000   0.0000   0.0000

          k = 0.0000 0.2165 0.0000 ( 48158 PWs)   bands (ev):

  -104.6318 -64.9666 -64.9557 -64.9556 -15.3064 -14.4572  -6.4129  -5.3340
    -4.5472  -4.4532  -3.7047  -3.3506  -3.3018  -2.8600  -2.7494  -1.5916
    -1.0195   2.6344   2.7615   3.1041

     occupation numbers 
     1.0000   1.0000   1.0000   1.0000   1.0000   1.0000   1.0000   1.0000
     1.0000   1.0000   1.0000   1.0000   1.0000   1.0000   1.0000   0.0000
     0.0000   0.0000   0.0000   0.0000

          k = 0.0000 0.2887 0.0000 ( 48148 PWs)   bands (ev):

  -104.6318 -64.9665 -64.9558 -64.9556 -15.1207 -14.3713  -6.3574  -5.7469
    -4.9253  -4.5323  -3.8834  -3.5103  -3.3152  -2.9127  -2.8619  -1.6152
    -1.0558   2.1537   3.0514   3.3371

     occupation numbers 
     1.0000   1.0000   1.0000   1.0000   1.0000   1.0000   1.0000   1.0000
     1.0000   1.0000   1.0000   1.0000   1.0000   1.0000   1.0000   0.0000
     0.0000   0.0000   0.0000   0.0000

          k = 0.0000 0.3608 0.0000 ( 48214 PWs)   bands (ev):

  -104.6318 -64.9665 -64.9560 -64.9557 -14.9106 -14.2910  -6.5892  -6.0266
    -5.1119  -4.5186  -4.0435  -3.7666  -3.3305  -2.9831  -2.9742  -1.4998
    -1.0754   1.7027   3.2060   3.6160

     occupation numbers 
     1.0000   1.0000   1.0000   1.0000   1.0000   1.0000   1.0000   1.0000
     1.0000   1.0000   1.0000   1.0000   1.0000   1.0000   1.0000   0.0000
     0.0000   0.0000   0.0000   0.0000

          k = 0.0000 0.4330 0.0000 ( 48212 PWs)   bands (ev):

  -104.6318 -64.9665 -64.9560 -64.9557 -14.7010 -14.2372  -6.9904  -6.2112
    -5.0128  -4.5081  -4.1681  -4.0286  -3.3415  -3.0871  -3.0536  -1.3594
    -1.0842   1.3656   3.2077   3.6678

     occupation numbers 
     1.0000   1.0000   1.0000   1.0000   1.0000   1.0000   1.0000   1.0000
     1.0000   1.0000   1.0000   1.0000   1.0000   1.0000   1.0000   0.0000
     0.0000   0.0000   0.0000   0.0000

          k = 0.0000 0.5052 0.0000 ( 48214 PWs)   bands (ev):

  -104.6318 -64.9665 -64.9561 -64.9557 -14.5267 -14.2253  -7.2890  -6.3575
    -4.7886  -4.5021  -4.2657  -4.2465  -3.3482  -3.1558  -3.1321  -1.2615
    -1.0876   1.1681   3.1406   3.7174

     occupation numbers 
     1.0000   1.0000   1.0000   1.0000   1.0000   1.0000   1.0000   1.0000
     1.0000   1.0000   1.0000   1.0000   1.0000   1.0000   1.0000   0.0000
     0.0000   0.0000   0.0000   0.0000

          k = 0.0000-0.5774 0.0000 ( 48254 PWs)   bands (ev):

  -104.6318 -64.9665 -64.9561 -64.9557 -14.4479 -14.2364  -7.3961  -6.4127
    -4.6079  -4.5002  -4.4350  -4.2732  -3.3504  -3.1796  -3.1669  -1.2283
    -1.0884   1.1053   3.1028   3.8954

     occupation numbers 
     1.0000   1.0000   1.0000   1.0000   1.0000   1.0000   1.0000   1.0000
     1.0000   1.0000   1.0000   1.0000   1.0000   1.0000   1.0000   0.0000
     0.0000   0.0000   0.0000   0.0000

          k = 0.0625 0.1083 0.0000 ( 48119 PWs)   bands (ev):

  -104.6318 -64.9666 -64.9556 -64.9556 -15.4799 -14.5471  -6.5553  -4.8752
    -4.5677  -3.7142  -3.5102  -3.3745  -3.2899  -2.7766  -2.6643  -1.2418
    -0.9871   2.2735   2.8715   3.2342

     occupation numbers 
     1.0000   1.0000   1.0000   1.0000   1.0000   1.0000   1.0000   1.0000
     1.0000   1.0000   1.0000   1.0000   1.0000   1.0000   1.0000   0.0000
     0.0000   0.0000   0.0000   0.0000

          k = 0.0625 0.1804 0.0000 ( 48136 PWs)   bands (ev):

  -104.6318 -64.9666 -64.9557 -64.9556 -15.3627 -14.4854  -6.4532  -5.1770
    -4.5713  -4.2319  -3.6771  -3.3163  -3.3020  -2.8375  -2.7305  -1.4587
    -1.0874   2.6062   2.9865   3.0902

     occupation numbers 
     1.0000   1.0000   1.0000   1.0000   1.0000   1.0000   1.0000   1.0000
     1.0000   1.0000   1.0000   1.0000   1.0000   1.0000   1.0000   0.0000
     0.0000   0.0000   0.0000   0.0000

          k = 0.0625 0.2526 0.0000 ( 48148 PWs)   bands (ev):

  -104.6318 -64.9666 -64.9558 -64.9556 -15.1978 -14.4051  -6.3549  -5.5517
    -4.7745  -4.5647  -3.8667  -3.4031  -3.3116  -2.8930  -2.8121  -1.5743
    -1.1427   2.5465   2.9761   3.2259

     occupation numbers 
     1.0000   1.0000   1.0000   1.0000   1.0000   1.0000   1.0000   1.0000
     1.0000   1.0000   1.0000   1.0000   1.0000   1.0000   1.0000   0.0000
     0.0000   0.0000   0.0000   0.0000

          k = 0.0625 0.3248 0.0000 ( 48173 PWs)   bands (ev):

  -104.6318 -64.9665 -64.9559 -64.9557 -14.9994 -14.3213  -6.4203  -5.9083
    -5.0864  -4.5781  -4.0520  -3.6226  -3.3223  -2.9617  -2.8985  -1.5437
    -1.1572   2.0691   3.2349   3.5034

     occupation numbers 
     1.0000   1.0000   1.0000   1.0000   1.0000   1.0000   1.0000   1.0000
     1.0000   1.0000   1.0000   1.0000   1.0000   1.0000   1.0000   0.0000
     0.0000   0.0000   0.0000   0.0000

          k = 0.0625 0.3969 0.0000 ( 48195 PWs)   bands (ev):

  -104.6318 -64.9665 -64.9560 -64.9557 -14.7884 -14.2533  -6.7746  -6.1175
    -5.0965  -4.5851  -4.2233  -3.8767  -3.3221  -3.0556  -2.9807  -1.4379
    -1.1516   1.6674   3.3377   3.7601

     occupation numbers 
     1.0000   1.0000   1.0000   1.0000   1.0000   1.0000   1.0000   1.0000
     1.0000   1.0000   1.0000   1.0000   1.0000   1.0000   1.0000   0.0000
     0.0000   0.0000   0.0000   0.0000

          k = 0.0625 0.4691 0.0000 ( 48179 PWs)   bands (ev):

  -104.6318 -64.9665 -64.9561 -64.9557 -14.5938 -14.2204  -7.1354  -6.2813
    -4.9224  -4.5729  -4.3744  -4.1039  -3.3116  -3.1394  -3.0651  -1.3304
    -1.1497   1.3925   3.3554   3.7730

     occupation numbers 
     1.0000   1.0000   1.0000   1.0000   1.0000   1.0000   1.0000   1.0000
     1.0000   1.0000   1.0000   1.0000   1.0000   1.0000   1.0000   0.0000
     0.0000   0.0000   0.0000   0.0000

          k = 0.0625 0.5413 0.0000 ( 48239 PWs)   bands (ev):

  -104.6318 -64.9665 -64.9561 -64.9557 -14.4586 -14.2268  -7.3408  -6.3795
    -4.7398  -4.5344  -4.4616  -4.2992  -3.3001  -3.1747  -3.1387  -1.2505
    -1.1702   1.2595   3.3288   3.8832

     occupation numbers 
     1.0000   1.0000   1.0000   1.0000   1.0000   1.0000   1.0000   1.0000
     1.0000   1.0000   1.0000   1.0000   1.0000   1.0000   1.0000   0.0000
     0.0000   0.0000   0.0000   0.0000

          k = 0.1250 0.2165 0.0000 ( 48125 PWs)   bands (ev):

  -104.6318 -64.9666 -64.9558 -64.9556 -15.2243 -14.4171  -6.3606  -5.4522
    -4.7357  -4.5717  -3.8916  -3.3427  -3.3248  -2.8849  -2.8003  -1.4475
    -1.2990   2.8768   3.0166   3.1464

     occupation numbers 
     1.0000   1.0000   1.0000   1.0000   1.0000   1.0000   1.0000   1.0000
     1.0000   1.0000   1.0000   1.0000   1.0000   1.0000   1.0000   0.0000
     0.0000   0.0000   0.0000   0.0000

          k = 0.1250 0.2887 0.0000 ( 48141 PWs)   bands (ev):

  -104.6318 -64.9665 -64.9559 -64.9557 -15.0460 -14.3380  -6.3390  -5.7664
    -5.0900  -4.6537  -4.1089  -3.5192  -3.3238  -2.9499  -2.8450  -1.5021
    -1.3321   2.5999   3.2707   3.3710

     occupation numbers 
     1.0000   1.0000   1.0000   1.0000   1.0000   1.0000   1.0000   1.0000
     1.0000   1.0000   1.0000   1.0000   1.0000   1.0000   1.0000   0.0000
     0.0000   0.0000   0.0000   0.0000

          k = 0.1250 0.3608 0.0000 ( 48162 PWs)   bands (ev):

  -104.6318 -64.9665 -64.9560 -64.9557 -14.8453 -14.2647  -6.5526  -6.0284
    -5.1877  -4.7258  -4.3103  -3.7603  -3.3073  -3.0349  -2.9019  -1.5406
    -1.2576   2.1978   3.4200   3.7769

     occupation numbers 
     1.0000   1.0000   1.0000   1.0000   1.0000   1.0000   1.0000   1.0000
     1.0000   1.0000   1.0000   1.0000   1.0000   1.0000   1.0000   0.0000
     0.0000   0.0000   0.0000   0.0000

          k = 0.1250 0.4330 0.0000 ( 48177 PWs)   bands (ev):

  -104.6318 -64.9665 -64.9560 -64.9557 -14.6463 -14.2162  -6.9101  -6.1925
    -5.1088  -4.7471  -4.4874  -3.9951  -3.2761  -3.1251  -2.9738  -1.4999
    -1.2125   1.8577   3.5661   4.0836

     occupation numbers 
     1.0000   1.0000   1.0000   1.0000   1.0000   1.0000   1.0000   1.0000
     1.0000   1.0000   1.0000   1.0000   1.0000   1.0000   1.0000   0.0000
     0.0000   0.0000   0.0000   0.0000

          k = 0.1250 0.5052 0.0000 ( 48212 PWs)   bands (ev):

  -104.6318 -64.9665 -64.9561 -64.9558 -14.4814 -14.2066  -7.1846  -6.2977
    -5.0612  -4.6320  -4.6123  -4.2089  -3.2514  -3.1743  -3.0512  -1.4235
    -1.2234   1.6459   3.7253   4.1559

     occupation numbers 
     1.0000   1.0000   1.0000   1.0000   1.0000   1.0000   1.0000   1.0000
     1.0000   1.0000   1.0000   1.0000   1.0000   1.0000   1.0000   0.0000
     0.0000   0.0000   0.0000   0.0000

          k = 0.1250 0.5774 0.0000 ( 48240 PWs)   bands (ev):

  -104.6318 -64.9665 -64.9561 -64.9558 -14.4065 -14.2183  -7.2842  -6.3349
    -5.0606  -4.6591  -4.4486  -4.3980  -3.2602  -3.1468  -3.1091  -1.3696
    -1.2555   1.5766   3.8066   4.2244

     occupation numbers 
     1.0000   1.0000   1.0000   1.0000   1.0000   1.0000   1.0000   1.0000
     1.0000   1.0000   1.0000   1.0000   1.0000   1.0000   1.0000   0.0000
     0.0000   0.0000   0.0000   0.0000

          k = 0.1875 0.3248 0.0000 ( 48145 PWs)   bands (ev):

  -104.6318 -64.9665 -64.9559 -64.9557 -14.8650 -14.2689  -6.4507  -5.9790
    -5.2631  -4.7744  -4.3484  -3.7157  -3.3041  -3.0273  -2.8690  -1.6002
    -1.2939   2.5571   3.3122   3.7718

     occupation numbers 
     1.0000   1.0000   1.0000   1.0000   1.0000   1.0000   1.0000   1.0000
     1.0000   1.0000   1.0000   1.0000   1.0000   1.0000   1.0000   0.0000
     0.0000   0.0000   0.0000   0.0000

          k = 0.1875 0.3969 0.0000 ( 48173 PWs)   bands (ev):

  -104.6318 -64.9665 -64.9560 -64.9558 -14.6748 -14.2139  -6.7016  -6.1489
    -5.3174  -4.8186  -4.5628  -3.9350  -3.2618  -3.1154  -2.9150  -1.6484
    -1.2335   2.3195   3.4214   4.2315

     occupation numbers 
     1.0000   1.0000   1.0000   1.0000   1.0000   1.0000   1.0000   1.0000
     1.0000   1.0000   1.0000   1.0000   1.0000   1.0000   1.0000   0.0000
     0.0000   0.0000   0.0000   0.0000

          k = 0.1875 0.4691 0.0000 ( 48158 PWs)   bands (ev):

  -104.6318 -64.9665 -64.9560 -64.9558 -14.5011 -14.1894  -6.9708  -6.2283
    -5.4112  -4.7453  -4.6956  -4.1362  -3.2299  -3.1745  -2.9760  -1.6090
    -1.2385   2.0695   3.6590   4.5330

     occupation numbers 
     1.0000   1.0000   1.0000   1.0000   1.0000   1.0000   1.0000   1.0000
     1.0000   1.0000   1.0000   1.0000   1.0000   1.0000   1.0000   0.0000
     0.0000   0.0000   0.0000   0.0000

          k = 0.1875 0.5413 0.0000 ( 48174 PWs)   bands (ev):

  -104.6318 -64.9665 -64.9561 -64.9558 -14.3798 -14.1991  -7.1334  -6.2489
    -5.4998  -4.8324  -4.5211  -4.3186  -3.2676  -3.1306  -3.0381  -1.5387
    -1.2893   1.9296   3.9943   4.4207

     occupation numbers 
     1.0000   1.0000   1.0000   1.0000   1.0000   1.0000   1.0000   1.0000
     1.0000   1.0000   1.0000   1.0000   1.0000   1.0000   1.0000   0.0000
     0.0000   0.0000   0.0000   0.0000

          k = 0.2500 0.4330 0.0000 ( 48187 PWs)   bands (ev):

  -104.6318 -64.9665 -64.9560 -64.9558 -14.5086 -14.1829  -6.8438  -6.2250
    -5.5580  -4.7963  -4.7246  -4.1102  -3.2231  -3.1746  -2.9485  -1.6809
    -1.2440   2.2732   3.5091   4.7472

     occupation numbers 
     1.0000   1.0000   1.0000   1.0000   1.0000   1.0000   1.0000   1.0000
     1.0000   1.0000   1.0000   1.0000   1.0000   1.0000   1.0000   0.0000
     0.0000   0.0000   0.0000   0.0000

          k = 0.2500 0.5052 0.0000 ( 48229 PWs)   bands (ev):

  -104.6318 -64.9665 -64.9560 -64.9559 -14.3713 -14.1829  -6.9590  -6.2107
    -5.7894  -4.9764  -4.5664  -4.2596  -3.2763  -3.1248  -2.9940  -1.6300
    -1.3148   2.1463   3.8078   4.7111

     occupation numbers 
     1.0000   1.0000   1.0000   1.0000   1.0000   1.0000   1.0000   1.0000
     1.0000   1.0000   1.0000   1.0000   1.0000   1.0000   1.0000   0.0000
     0.0000   0.0000   0.0000   0.0000

          k = 0.2500 0.5774 0.0000 ( 48231 PWs)   bands (ev):

  -104.6318 -64.9665 -64.9560 -64.9559 -14.3046 -14.2003  -7.0049  -6.1631
    -5.9086  -5.0453  -4.4444  -4.3678  -3.3026  -3.0839  -3.0291  -1.5760
    -1.3756   2.0893   4.1664   4.3264

     occupation numbers 
     1.0000   1.0000   1.0000   1.0000   1.0000   1.0000   1.0000   1.0000
     1.0000   1.0000   1.0000   1.0000   1.0000   1.0000   1.0000   0.0000
     0.0000   0.0000   0.0000   0.0000

          k = 0.3125 0.5413 0.0000 ( 48231 PWs)   bands (ev):

  -104.6318 -64.9665 -64.9560 -64.9559 -14.2737 -14.2050  -6.9128  -6.1579
    -6.0538  -5.1453  -4.4471  -4.3510  -3.3171  -3.0699  -3.0234  -1.5646
    -1.4295   2.1293   4.1237   4.4892

     occupation numbers 
     1.0000   1.0000   1.0000   1.0000   1.0000   1.0000   1.0000   1.0000
     1.0000   1.0000   1.0000   1.0000   1.0000   1.0000   1.0000   0.0000
     0.0000   0.0000   0.0000   0.0000

     the Fermi energy is    -1.7825 ev
     (compare with:    -1.7810 eV, computed in scf)

     Writing output data file ./tmp/csp.save/
 
     init_run     :      0.92s CPU      0.97s WALL (       1 calls)
     electrons    :     21.16s CPU     21.37s WALL (       1 calls)

     Called by init_run:
     wfcinit      :      0.00s CPU      0.01s WALL (       1 calls)
     wfcinit:atom :      0.02s CPU      0.02s WALL (      60 calls)
     wfcinit:wfcr :      0.98s CPU      0.99s WALL (      60 calls)
     potinit      :      0.07s CPU      0.09s WALL (       1 calls)
     hinit0       :      0.74s CPU      0.75s WALL (       1 calls)

     Called by electrons:
     c_bands      :     21.16s CPU     21.37s WALL (       1 calls)
     v_of_rho     :      0.05s CPU      0.06s WALL (       1 calls)
     v_h          :      0.00s CPU      0.00s WALL (       1 calls)
     v_xc         :      0.05s CPU      0.05s WALL (       1 calls)

     Called by c_bands:
     init_us_2    :      0.03s CPU      0.03s WALL (      60 calls)
     cegterg      :     15.79s CPU     15.95s WALL (     122 calls)

     Called by sum_band:

     Called by *egterg:
     cdiaghg      :      1.44s CPU      1.46s WALL (    2069 calls)
     cegterg:over :      0.52s CPU      0.52s WALL (    2009 calls)
     cegterg:upda :      0.15s CPU      0.16s WALL (    2009 calls)
     cegterg:last :      0.23s CPU      0.23s WALL (     963 calls)
     h_psi        :     13.98s CPU     14.12s WALL (    2191 calls)
     g_psi        :      0.05s CPU      0.05s WALL (    2009 calls)

     Called by h_psi:
     h_psi:calbec :      0.54s CPU      0.55s WALL (    2191 calls)
     vloc_psi     :     13.14s CPU     13.27s WALL (    2191 calls)
     add_vuspsi   :      0.23s CPU      0.23s WALL (    2191 calls)

     General routines
     calbec       :      0.53s CPU      0.54s WALL (    2191 calls)
     fft          :      0.05s CPU      0.06s WALL (      21 calls)
     ffts         :      0.00s CPU      0.00s WALL (       2 calls)
     fftw         :     12.45s CPU     12.57s WALL (   39188 calls)
     interpolate  :      0.00s CPU      0.00s WALL (       2 calls)
     davcio       :      0.02s CPU      0.08s WALL (     120 calls)
 
     Parallel routines
 
     PWSCF        :     24.76s CPU     29.41s WALL

 
   This run was terminated on:  17: 4:10   8Mar2023            

=------------------------------------------------------------------------------=
   JOB DONE.
=------------------------------------------------------------------------------=
