
     Program PWSCF v.7.1 starts on 27Jun2023 at 15:28:56

     This program is part of the open-source Quantum ESPRESSO suite
     for quantum simulation of materials; please cite
         "P. Giannozzi et al., J. Phys.:Condens. Matter 21 395502 (2009);
         "P. Giannozzi et al., J. Phys.:Condens. Matter 29 465901 (2017);
         "P. Giannozzi et al., J. Chem. Phys. 152 154105 (2020);
          URL http://www.quantum-espresso.org",
     in publications or presentations arising from this work. More details at
     http://www.quantum-espresso.org/quote

     Parallel version (MPI & OpenMP), running on      20 processor cores
     Number of MPI processes:                20
     Threads/MPI process:                     1

     MPI processes distributed on     1 nodes
     225782 MiB available memory on the printing compute node when the environment starts

     Reading input from input/nscf.in

     Current dimensions of program PWSCF are:
     Max number of different atomic species (ntypx) = 10
     Max number of k-points (npk) =  40000
     Max angular momentum in pseudopotentials (lmaxx) =  4

     Atomic positions and unit cell read from directory:
     ./tmp/c.save/
     Atomic positions from file used, from input discarded


     R & G space division:  proc/nbgrp/npool/nimage =      20
     Subspace diagonalization in iterative solution of the eigenvalue problem:
     a serial algorithm will be used


     Parallelization info
     --------------------
     sticks:   dense  smooth     PW     G-vecs:    dense   smooth      PW
     Min          93      89     24                20481    19267    2790
     Max          94      90     25                20502    19300    2817
     Sum        1879    1789    499               409943   385631   56191

     Using Slab Decomposition



     bravais-lattice index     =            0
     lattice parameter (alat)  =       7.3605  a.u.
     unit-cell volume          =    2170.2486 (a.u.)^3
     number of atoms/cell      =            3
     number of atomic types    =            2
     number of electrons       =        32.00
     number of Kohn-Sham states=           20
     kinetic-energy cutoff     =     120.0000  Ry
     charge density cutoff     =     500.0000  Ry
     Exchange-correlation= PBE
                           (   1   4   3   4   0   0   0)

     celldm(1)=   7.360481  celldm(2)=   0.000000  celldm(3)=   0.000000
     celldm(4)=   0.000000  celldm(5)=   0.000000  celldm(6)=   0.000000

     crystal axes: (cart. coord. in units of alat)
               a(1) = (   1.000000   0.000000   0.000000 )
               a(2) = (  -0.500000   0.866025   0.000000 )
               a(3) = (   0.000000   0.000000   6.284350 )

     reciprocal axes: (cart. coord. in units 2 pi/alat)
               b(1) = (  1.000000  0.577350  0.000000 )
               b(2) = (  0.000000  1.154701  0.000000 )
               b(3) = (  0.000000  0.000000  0.159125 )


     PseudoPot. # 1 for Ni read from file:
     ../pseudo/Ni.upf
     MD5 check sum: 14a7e289c5fff9cacaba393040e62f02
     Pseudo is Norm-conserving + core correction, Zval = 18.0
     Generated using ONCVPSP code by D. R. Hamann
     Using radial grid of 1372 points,  6 beta functions with:
                l(1) =   0
                l(2) =   0
                l(3) =   1
                l(4) =   1
                l(5) =   2
                l(6) =   2

     PseudoPot. # 2 for I  read from file:
     ../pseudo/I.upf
     MD5 check sum: 301f7009ca0a2b18b0adf53dca02d42f
     Pseudo is Norm-conserving + core correction, Zval =  7.0
     Generated using ONCVPSP code by D. R. Hamann
     Using radial grid of 1210 points,  6 beta functions with:
                l(1) =   0
                l(2) =   0
                l(3) =   1
                l(4) =   1
                l(5) =   2
                l(6) =   2

     atomic species   valence    mass     pseudopotential
        Ni            18.00    58.69340     Ni( 1.00)
        I              7.00   126.90447     I ( 1.00)

     No symmetry found


                                    s                        frac. trans.

      isym =  1     identity

 cryst.   s( 1) = (     1          0          0      )
                  (     0          1          0      )
                  (     0          0          1      )

 cart.    s( 1) = (  1.0000000 -0.0000000  0.0000000 )
                  (  0.0000000  1.0000000  0.0000000 )
                  (  0.0000000  0.0000000  1.0000000 )


   Cartesian axes

     site n.     atom                  positions (alat units)
         1           Ni  tau(   1) = (   0.0000000   0.0000000   3.1421749  )
         2           I   tau(   2) = (  -0.0000000   0.5773503   3.5289144  )
         3           I   tau(   3) = (   0.5000000   0.2886751   2.7554354  )

   Crystallographic axes

     site n.     atom                  positions (cryst. coord.)
         1           Ni  tau(   1) = (  0.0000000  0.0000000  0.5000000  )
         2           I   tau(   2) = (  0.3333333  0.6666667  0.5615401  )
         3           I   tau(   3) = (  0.6666667  0.3333333  0.4384599  )

     number of k points=    61  Marzari-Vanderbilt smearing, width (Ry)=  0.0015
                       cart. coord. in units 2pi/alat
        k(    1) = (   0.0000000   0.0000000   0.0000000), wk =   0.0327869
        k(    2) = (   0.0166650   0.0288646   0.0000000), wk =   0.0327869
        k(    3) = (   0.0333300   0.0577293   0.0000000), wk =   0.0327869
        k(    4) = (   0.0499950   0.0865939   0.0000000), wk =   0.0327869
        k(    5) = (   0.0666600   0.1154585   0.0000000), wk =   0.0327869
        k(    6) = (   0.0833250   0.1443231   0.0000000), wk =   0.0327869
        k(    7) = (   0.0999900   0.1731878   0.0000000), wk =   0.0327869
        k(    8) = (   0.1166550   0.2020524   0.0000000), wk =   0.0327869
        k(    9) = (   0.1333200   0.2309170   0.0000000), wk =   0.0327869
        k(   10) = (   0.1499850   0.2597816   0.0000000), wk =   0.0327869
        k(   11) = (   0.1666500   0.2886463   0.0000000), wk =   0.0327869
        k(   12) = (   0.1833150   0.3175109   0.0000000), wk =   0.0327869
        k(   13) = (   0.1999800   0.3463755   0.0000000), wk =   0.0327869
        k(   14) = (   0.2166450   0.3752401   0.0000000), wk =   0.0327869
        k(   15) = (   0.2333100   0.4041048   0.0000000), wk =   0.0327869
        k(   16) = (   0.2499750   0.4329694   0.0000000), wk =   0.0327869
        k(   17) = (   0.2666400   0.4618340   0.0000000), wk =   0.0327869
        k(   18) = (   0.2833050   0.4906987   0.0000000), wk =   0.0327869
        k(   19) = (   0.2999700   0.5195633   0.0000000), wk =   0.0327869
        k(   20) = (   0.3166350   0.5484279   0.0000000), wk =   0.0327869
        k(   21) = (   0.3333000   0.5772925   0.0000000), wk =   0.0327869
        k(   22) = (   0.3416350   0.5628617   0.0000000), wk =   0.0327869
        k(   23) = (   0.3499700   0.5484308   0.0000000), wk =   0.0327869
        k(   24) = (   0.3583050   0.5339999   0.0000000), wk =   0.0327869
        k(   25) = (   0.3666400   0.5195691   0.0000000), wk =   0.0327869
        k(   26) = (   0.3749750   0.5051382   0.0000000), wk =   0.0327869
        k(   27) = (   0.3833100   0.4907073   0.0000000), wk =   0.0327869
        k(   28) = (   0.3916450   0.4762764   0.0000000), wk =   0.0327869
        k(   29) = (   0.3999800   0.4618456   0.0000000), wk =   0.0327869
        k(   30) = (   0.4083150   0.4474147   0.0000000), wk =   0.0327869
        k(   31) = (   0.4166500   0.4329838   0.0000000), wk =   0.0327869
        k(   32) = (   0.4249850   0.4185530   0.0000000), wk =   0.0327869
        k(   33) = (   0.4333200   0.4041221   0.0000000), wk =   0.0327869
        k(   34) = (   0.4416550   0.3896912   0.0000000), wk =   0.0327869
        k(   35) = (   0.4499900   0.3752604   0.0000000), wk =   0.0327869
        k(   36) = (   0.4583250   0.3608295   0.0000000), wk =   0.0327869
        k(   37) = (   0.4666600   0.3463986   0.0000000), wk =   0.0327869
        k(   38) = (   0.4749950   0.3319677   0.0000000), wk =   0.0327869
        k(   39) = (   0.4833300   0.3175369   0.0000000), wk =   0.0327869
        k(   40) = (   0.4916650   0.3031060   0.0000000), wk =   0.0327869
        k(   41) = (   0.5000000   0.2886751   0.0000000), wk =   0.0327869
        k(   42) = (   0.4750000   0.2742414   0.0000000), wk =   0.0327869
        k(   43) = (   0.4500000   0.2598076   0.0000000), wk =   0.0327869
        k(   44) = (   0.4250000   0.2453739   0.0000000), wk =   0.0327869
        k(   45) = (   0.4000000   0.2309401   0.0000000), wk =   0.0327869
        k(   46) = (   0.3750000   0.2165064   0.0000000), wk =   0.0327869
        k(   47) = (   0.3500000   0.2020726   0.0000000), wk =   0.0327869
        k(   48) = (   0.3250000   0.1876388   0.0000000), wk =   0.0327869
        k(   49) = (   0.3000000   0.1732051   0.0000000), wk =   0.0327869
        k(   50) = (   0.2750000   0.1587713   0.0000000), wk =   0.0327869
        k(   51) = (   0.2500000   0.1443376   0.0000000), wk =   0.0327869
        k(   52) = (   0.2250000   0.1299038   0.0000000), wk =   0.0327869
        k(   53) = (   0.2000000   0.1154701   0.0000000), wk =   0.0327869
        k(   54) = (   0.1750000   0.1010363   0.0000000), wk =   0.0327869
        k(   55) = (   0.1500000   0.0866025   0.0000000), wk =   0.0327869
        k(   56) = (   0.1250000   0.0721688   0.0000000), wk =   0.0327869
        k(   57) = (   0.1000000   0.0577350   0.0000000), wk =   0.0327869
        k(   58) = (   0.0750000   0.0433013   0.0000000), wk =   0.0327869
        k(   59) = (   0.0500000   0.0288675   0.0000000), wk =   0.0327869
        k(   60) = (   0.0250000   0.0144338   0.0000000), wk =   0.0327869
        k(   61) = (   0.0000000   0.0000000   0.0000000), wk =   0.0327869

                       cryst. coord.
        k(    1) = (   0.0000000   0.0000000   0.0000000), wk =   0.0327869
        k(    2) = (   0.0166650   0.0166650   0.0000000), wk =   0.0327869
        k(    3) = (   0.0333300   0.0333300   0.0000000), wk =   0.0327869
        k(    4) = (   0.0499950   0.0499950   0.0000000), wk =   0.0327869
        k(    5) = (   0.0666600   0.0666600   0.0000000), wk =   0.0327869
        k(    6) = (   0.0833250   0.0833250   0.0000000), wk =   0.0327869
        k(    7) = (   0.0999900   0.0999900   0.0000000), wk =   0.0327869
        k(    8) = (   0.1166550   0.1166550   0.0000000), wk =   0.0327869
        k(    9) = (   0.1333200   0.1333200   0.0000000), wk =   0.0327869
        k(   10) = (   0.1499850   0.1499850   0.0000000), wk =   0.0327869
        k(   11) = (   0.1666500   0.1666500   0.0000000), wk =   0.0327869
        k(   12) = (   0.1833150   0.1833150   0.0000000), wk =   0.0327869
        k(   13) = (   0.1999800   0.1999800   0.0000000), wk =   0.0327869
        k(   14) = (   0.2166450   0.2166450   0.0000000), wk =   0.0327869
        k(   15) = (   0.2333100   0.2333100   0.0000000), wk =   0.0327869
        k(   16) = (   0.2499750   0.2499750   0.0000000), wk =   0.0327869
        k(   17) = (   0.2666400   0.2666400   0.0000000), wk =   0.0327869
        k(   18) = (   0.2833050   0.2833050   0.0000000), wk =   0.0327869
        k(   19) = (   0.2999700   0.2999700   0.0000000), wk =   0.0327869
        k(   20) = (   0.3166350   0.3166350   0.0000000), wk =   0.0327869
        k(   21) = (   0.3333000   0.3333000   0.0000000), wk =   0.0327869
        k(   22) = (   0.3416350   0.3166350   0.0000000), wk =   0.0327869
        k(   23) = (   0.3499700   0.2999700   0.0000000), wk =   0.0327869
        k(   24) = (   0.3583050   0.2833050   0.0000000), wk =   0.0327869
        k(   25) = (   0.3666400   0.2666400   0.0000000), wk =   0.0327869
        k(   26) = (   0.3749750   0.2499750   0.0000000), wk =   0.0327869
        k(   27) = (   0.3833100   0.2333100   0.0000000), wk =   0.0327869
        k(   28) = (   0.3916450   0.2166450   0.0000000), wk =   0.0327869
        k(   29) = (   0.3999800   0.1999800   0.0000000), wk =   0.0327869
        k(   30) = (   0.4083150   0.1833150   0.0000000), wk =   0.0327869
        k(   31) = (   0.4166500   0.1666500   0.0000000), wk =   0.0327869
        k(   32) = (   0.4249850   0.1499850   0.0000000), wk =   0.0327869
        k(   33) = (   0.4333200   0.1333200   0.0000000), wk =   0.0327869
        k(   34) = (   0.4416550   0.1166550   0.0000000), wk =   0.0327869
        k(   35) = (   0.4499900   0.0999900   0.0000000), wk =   0.0327869
        k(   36) = (   0.4583250   0.0833250   0.0000000), wk =   0.0327869
        k(   37) = (   0.4666600   0.0666600   0.0000000), wk =   0.0327869
        k(   38) = (   0.4749950   0.0499950   0.0000000), wk =   0.0327869
        k(   39) = (   0.4833300   0.0333300   0.0000000), wk =   0.0327869
        k(   40) = (   0.4916650   0.0166650   0.0000000), wk =   0.0327869
        k(   41) = (   0.5000000  -0.0000000   0.0000000), wk =   0.0327869
        k(   42) = (   0.4750000  -0.0000000   0.0000000), wk =   0.0327869
        k(   43) = (   0.4500000   0.0000000   0.0000000), wk =   0.0327869
        k(   44) = (   0.4250000  -0.0000000   0.0000000), wk =   0.0327869
        k(   45) = (   0.4000000  -0.0000000   0.0000000), wk =   0.0327869
        k(   46) = (   0.3750000  -0.0000000   0.0000000), wk =   0.0327869
        k(   47) = (   0.3500000  -0.0000000   0.0000000), wk =   0.0327869
        k(   48) = (   0.3250000  -0.0000000   0.0000000), wk =   0.0327869
        k(   49) = (   0.3000000  -0.0000000   0.0000000), wk =   0.0327869
        k(   50) = (   0.2750000  -0.0000000   0.0000000), wk =   0.0327869
        k(   51) = (   0.2500000  -0.0000000   0.0000000), wk =   0.0327869
        k(   52) = (   0.2250000  -0.0000000   0.0000000), wk =   0.0327869
        k(   53) = (   0.2000000  -0.0000000   0.0000000), wk =   0.0327869
        k(   54) = (   0.1750000  -0.0000000   0.0000000), wk =   0.0327869
        k(   55) = (   0.1500000  -0.0000000   0.0000000), wk =   0.0327869
        k(   56) = (   0.1250000  -0.0000000   0.0000000), wk =   0.0327869
        k(   57) = (   0.1000000  -0.0000000   0.0000000), wk =   0.0327869
        k(   58) = (   0.0750000  -0.0000000   0.0000000), wk =   0.0327869
        k(   59) = (   0.0500000  -0.0000000   0.0000000), wk =   0.0327869
        k(   60) = (   0.0250000   0.0000000   0.0000000), wk =   0.0327869
        k(   61) = (   0.0000000   0.0000000   0.0000000), wk =   0.0327869

     Dense  grid:   409943 G-vectors     FFT dimensions: (  54,  54, 360)

     Smooth grid:   385631 G-vectors     FFT dimensions: (  54,  54, 324)

     Dynamical RAM for                 wfc:       0.73 MB

     Dynamical RAM for     wfc (w. buffer):       0.73 MB

     Dynamical RAM for           str. fact:       0.63 MB

     Dynamical RAM for           local pot:       0.00 MB

     Dynamical RAM for          nlocal pot:       1.98 MB

     Dynamical RAM for                qrad:       3.59 MB

     Dynamical RAM for          rho,v,vnew:       2.14 MB

     Dynamical RAM for           G-vectors:       1.32 MB

     Dynamical RAM for          h,s,v(r/c):       0.07 MB

     Dynamical RAM for          <psi|beta>:       0.02 MB

     Dynamical RAM for                 psi:       1.47 MB

     Dynamical RAM for                hpsi:       1.47 MB

     Dynamical RAM for      wfcinit/wfcrot:       1.48 MB

     Estimated static dynamical RAM per process >      13.33 MB

     Estimated max dynamical RAM per process >      16.36 MB

     Estimated total dynamical RAM >     327.27 MB

     The potential is recalculated from file :
     ./tmp/c.save/charge-density

     Starting wfcs are   18 randomized atomic wfcs +    2 random wfcs

     Band Structure Calculation
     Davidson diagonalization with overlap

     Computing kpt #:     1  of    61
     total cpu time spent up to now is        1.4 secs

     Computing kpt #:     2  of    61
     total cpu time spent up to now is        1.7 secs

     Computing kpt #:     3  of    61
     total cpu time spent up to now is        2.0 secs

     Computing kpt #:     4  of    61
     total cpu time spent up to now is        2.4 secs

     Computing kpt #:     5  of    61
     total cpu time spent up to now is        2.8 secs

     Computing kpt #:     6  of    61
     total cpu time spent up to now is        3.2 secs

     Computing kpt #:     7  of    61
     total cpu time spent up to now is        3.5 secs

     Computing kpt #:     8  of    61
     total cpu time spent up to now is        3.8 secs

     Computing kpt #:     9  of    61
     total cpu time spent up to now is        4.1 secs

     Computing kpt #:    10  of    61
     total cpu time spent up to now is        4.5 secs

     Computing kpt #:    11  of    61
     total cpu time spent up to now is        4.8 secs

     Computing kpt #:    12  of    61
     total cpu time spent up to now is        5.1 secs

     Computing kpt #:    13  of    61
     total cpu time spent up to now is        5.4 secs

     Computing kpt #:    14  of    61
     total cpu time spent up to now is        5.7 secs

     Computing kpt #:    15  of    61
     total cpu time spent up to now is        6.0 secs

     Computing kpt #:    16  of    61
     total cpu time spent up to now is        6.4 secs

     Computing kpt #:    17  of    61
     total cpu time spent up to now is        6.7 secs

     Computing kpt #:    18  of    61
     total cpu time spent up to now is        7.0 secs

     Computing kpt #:    19  of    61
     total cpu time spent up to now is        7.3 secs

     Computing kpt #:    20  of    61
     total cpu time spent up to now is        7.6 secs

     Computing kpt #:    21  of    61
     total cpu time spent up to now is        7.9 secs

     Computing kpt #:    22  of    61
     total cpu time spent up to now is        8.2 secs

     Computing kpt #:    23  of    61
     total cpu time spent up to now is        8.6 secs

     Computing kpt #:    24  of    61
     total cpu time spent up to now is        8.9 secs

     Computing kpt #:    25  of    61
     total cpu time spent up to now is        9.2 secs

     Computing kpt #:    26  of    61
     total cpu time spent up to now is        9.5 secs

     Computing kpt #:    27  of    61
     total cpu time spent up to now is        9.8 secs

     Computing kpt #:    28  of    61
     total cpu time spent up to now is       10.1 secs

     Computing kpt #:    29  of    61
     total cpu time spent up to now is       10.5 secs

     Computing kpt #:    30  of    61
     total cpu time spent up to now is       10.8 secs

     Computing kpt #:    31  of    61
     total cpu time spent up to now is       11.2 secs

     Computing kpt #:    32  of    61
     total cpu time spent up to now is       11.6 secs

     Computing kpt #:    33  of    61
     total cpu time spent up to now is       12.0 secs

     Computing kpt #:    34  of    61
     total cpu time spent up to now is       12.3 secs

     Computing kpt #:    35  of    61
     total cpu time spent up to now is       12.6 secs

     Computing kpt #:    36  of    61
     total cpu time spent up to now is       12.9 secs

     Computing kpt #:    37  of    61
     total cpu time spent up to now is       13.3 secs

     Computing kpt #:    38  of    61
     total cpu time spent up to now is       13.6 secs

     Computing kpt #:    39  of    61
     total cpu time spent up to now is       13.8 secs

     Computing kpt #:    40  of    61
     total cpu time spent up to now is       14.1 secs

     Computing kpt #:    41  of    61
     total cpu time spent up to now is       14.4 secs

     Computing kpt #:    42  of    61
     total cpu time spent up to now is       14.7 secs

     Computing kpt #:    43  of    61
     total cpu time spent up to now is       15.0 secs

     Computing kpt #:    44  of    61
     total cpu time spent up to now is       15.3 secs

     Computing kpt #:    45  of    61
     total cpu time spent up to now is       15.6 secs

     Computing kpt #:    46  of    61
     total cpu time spent up to now is       16.0 secs

     Computing kpt #:    47  of    61
     total cpu time spent up to now is       16.3 secs

     Computing kpt #:    48  of    61
     total cpu time spent up to now is       16.6 secs

     Computing kpt #:    49  of    61
     total cpu time spent up to now is       16.9 secs

     Computing kpt #:    50  of    61
     total cpu time spent up to now is       17.2 secs

     Computing kpt #:    51  of    61
     total cpu time spent up to now is       17.6 secs

     Computing kpt #:    52  of    61
     total cpu time spent up to now is       17.9 secs

     Computing kpt #:    53  of    61
     total cpu time spent up to now is       18.2 secs

     Computing kpt #:    54  of    61
     total cpu time spent up to now is       18.5 secs

     Computing kpt #:    55  of    61
     total cpu time spent up to now is       18.9 secs

     Computing kpt #:    56  of    61
     total cpu time spent up to now is       19.2 secs

     Computing kpt #:    57  of    61
     total cpu time spent up to now is       19.6 secs

     Computing kpt #:    58  of    61
     total cpu time spent up to now is       19.9 secs

     Computing kpt #:    59  of    61
     total cpu time spent up to now is       20.2 secs

     Computing kpt #:    60  of    61
     total cpu time spent up to now is       20.6 secs

     Computing kpt #:    61  of    61
     total cpu time spent up to now is       20.9 secs

     ethr =  3.12E-09,  avg # of iterations = 32.2

     total cpu time spent up to now is       20.9 secs

     End of band structure calculation

          k = 0.0000 0.0000 0.0000 ( 48107 PWs)   bands (ev):

  -104.6355 -65.0296 -65.0282 -65.0282 -15.7534 -14.8306  -6.7391  -4.8356
    -4.8356  -3.7411  -3.2561  -3.2561  -3.0002  -2.8300  -2.8300  -1.3061
    -1.3061   1.8451   2.5769   2.7242

     occupation numbers
     1.0000   1.0000   1.0000   1.0000   1.0000   1.0000   1.0000   1.0000
     1.0000   1.0000   1.0000   1.0000   1.0000   1.0000   1.0000   0.0000
     0.0000   0.0000   0.0000   0.0000

          k = 0.0167 0.0289 0.0000 ( 48103 PWs)   bands (ev):

  -104.6355 -65.0296 -65.0282 -65.0282 -15.7470 -14.8269  -6.7325  -4.8584
    -4.8353  -3.7244  -3.2811  -3.2795  -3.0480  -2.8191  -2.8046  -1.3416
    -1.3128   1.8770   2.6308   2.7330

     occupation numbers
     1.0000   1.0000   1.0000   1.0000   1.0000   1.0000   1.0000   1.0000
     1.0000   1.0000   1.0000   1.0000   1.0000   1.0000   1.0000   0.0000
     0.0000   0.0000   0.0000   0.0000

          k = 0.0333 0.0577 0.0000 ( 48127 PWs)   bands (ev):

  -104.6355 -65.0296 -65.0282 -65.0282 -15.7278 -14.8161  -6.7130  -4.9226
    -4.8345  -3.6797  -3.3863  -3.3435  -3.1128  -2.7935  -2.7696  -1.4375
    -1.3344   1.9667   2.7508   2.7888

     occupation numbers
     1.0000   1.0000   1.0000   1.0000   1.0000   1.0000   1.0000   1.0000
     1.0000   1.0000   1.0000   1.0000   1.0000   1.0000   1.0000   0.0000
     0.0000   0.0000   0.0000   0.0000

          k = 0.0500 0.0866 0.0000 ( 48139 PWs)   bands (ev):

  -104.6355 -65.0296 -65.0282 -65.0282 -15.6960 -14.7983  -6.6813  -5.0184
    -4.8340  -3.6195  -3.5863  -3.4363  -3.1409  -2.7654  -2.7460  -1.5680
    -1.3737   2.0989   2.7952   3.0025

     occupation numbers
     1.0000   1.0000   1.0000   1.0000   1.0000   1.0000   1.0000   1.0000
     1.0000   1.0000   1.0000   1.0000   1.0000   1.0000   1.0000   0.0000
     0.0000   0.0000   0.0000   0.0000

          k = 0.0667 0.1155 0.0000 ( 48115 PWs)   bands (ev):

  -104.6355 -65.0296 -65.0282 -65.0282 -15.6523 -14.7743  -6.6388  -5.1361
    -4.8349  -3.8422  -3.5668  -3.5413  -3.1506  -2.7448  -2.7329  -1.7028
    -1.4324   2.2567   2.8493   3.2527

     occupation numbers
     1.0000   1.0000   1.0000   1.0000   1.0000   1.0000   1.0000   1.0000
     1.0000   1.0000   1.0000   1.0000   1.0000   1.0000   1.0000   0.0009
     0.0000   0.0000   0.0000   0.0000

          k = 0.0833 0.1443 0.0000 ( 48105 PWs)   bands (ev):

  -104.6355 -65.0296 -65.0283 -65.0282 -15.5971 -14.7446  -6.5878  -5.2682
    -4.8388  -4.1242  -3.6815  -3.5071  -3.1537  -2.7372  -2.7279  -1.8150
    -1.5095   2.4274   2.9142   3.2528

     occupation numbers
     1.0000   1.0000   1.0000   1.0000   1.0000   1.0000   1.0000   1.0000
     1.0000   1.0000   1.0000   1.0000   1.0000   1.0000   1.0000   1.0000
     0.0000   0.0000   0.0000   0.0000

          k = 0.1000 0.1732 0.0000 ( 48137 PWs)   bands (ev):

  -104.6355 -65.0296 -65.0283 -65.0282 -15.5315 -14.7103  -6.5321  -5.4090
    -4.8477  -4.4122  -3.8207  -3.4857  -3.1538  -2.7423  -2.7300  -1.8870
    -1.6014   2.6041   2.9859   3.1368

     occupation numbers
     1.0000   1.0000   1.0000   1.0000   1.0000   1.0000   1.0000   1.0000
     1.0000   1.0000   1.0000   1.0000   1.0000   1.0000   1.0000   1.0000
     0.0000   0.0000   0.0000   0.0000

          k = 0.1167 0.2021 0.0000 ( 48129 PWs)   bands (ev):

  -104.6355 -65.0296 -65.0283 -65.0282 -15.4564 -14.6725  -6.4778  -5.5540
    -4.8640  -4.6893  -3.9657  -3.5016  -3.1517  -2.7530  -2.7394  -1.9144
    -1.7024   2.7785   3.0114   3.0587

     occupation numbers
     1.0000   1.0000   1.0000   1.0000   1.0000   1.0000   1.0000   1.0000
     1.0000   1.0000   1.0000   1.0000   1.0000   1.0000   1.0000   1.0000
     0.0009   0.0000   0.0000   0.0000

          k = 0.1333 0.2309 0.0000 ( 48147 PWs)   bands (ev):

  -104.6355 -65.0296 -65.0284 -65.0282 -15.3732 -14.6325  -6.4345  -5.6987
    -4.9391  -4.8894  -4.1114  -3.5577  -3.1478  -2.7615  -2.7570  -1.9049
    -1.8051   2.8321   3.0223   3.1251

     occupation numbers
     1.0000   1.0000   1.0000   1.0000   1.0000   1.0000   1.0000   1.0000
     1.0000   1.0000   1.0000   1.0000   1.0000   1.0000   1.0000   1.0000
     1.0003   0.0000   0.0000   0.0000

          k = 0.1500 0.2598 0.0000 ( 48139 PWs)   bands (ev):

  -104.6355 -65.0296 -65.0284 -65.0283 -15.2836 -14.5918  -6.4169  -5.8386
    -5.1410  -4.9276  -4.2541  -3.6473  -3.1415  -2.7837  -2.7658  -1.9016
    -1.8710   2.7319   3.1779   3.2108

     occupation numbers
     1.0000   1.0000   1.0000   1.0000   1.0000   1.0000   1.0000   1.0000
     1.0000   1.0000   1.0000   1.0000   1.0000   1.0000   1.0000   1.0000
     1.0000   0.0000   0.0000   0.0000

          k = 0.1666 0.2886 0.0000 ( 48163 PWs)   bands (ev):

  -104.6355 -65.0296 -65.0285 -65.0283 -15.1893 -14.5521  -6.4410  -5.9690
    -5.2792  -4.9771  -4.3909  -3.7595  -3.1323  -2.8196  -2.7683  -1.9849
    -1.8253   2.6302   3.2138   3.4260

     occupation numbers
     1.0000   1.0000   1.0000   1.0000   1.0000   1.0000   1.0000   1.0000
     1.0000   1.0000   1.0000   1.0000   1.0000   1.0000   1.0000   1.0000
     1.0000   0.0000   0.0000   0.0000

          k = 0.1833 0.3175 0.0000 ( 48159 PWs)   bands (ev):

  -104.6355 -65.0296 -65.0285 -65.0283 -15.0924 -14.5148  -6.5123  -6.0853
    -5.3531  -5.0328  -4.5206  -3.8840  -3.1195  -2.8629  -2.7721  -2.0508
    -1.7786   2.5362   3.2363   3.6572

     occupation numbers
     1.0000   1.0000   1.0000   1.0000   1.0000   1.0000   1.0000   1.0000
     1.0000   1.0000   1.0000   1.0000   1.0000   1.0000   1.0000   1.0000
     1.0417   0.0000   0.0000   0.0000

          k = 0.2000 0.3464 0.0000 ( 48131 PWs)   bands (ev):

  -104.6355 -65.0295 -65.0285 -65.0283 -14.9951 -14.4816  -6.6166  -6.1835
    -5.3939  -5.0764  -4.6431  -4.0131  -3.1024  -2.9099  -2.7785  -2.0980
    -1.7399   2.4486   3.2564   3.9033

     occupation numbers
     1.0000   1.0000   1.0000   1.0000   1.0000   1.0000   1.0000   1.0000
     1.0000   1.0000   1.0000   1.0000   1.0000   1.0000   1.0000   1.0000
     0.4415   0.0000   0.0000   0.0000

          k = 0.2166 0.3752 0.0000 ( 48159 PWs)   bands (ev):

  -104.6355 -65.0295 -65.0286 -65.0283 -14.9000 -14.4538  -6.7303  -6.2601
    -5.4534  -5.0783  -4.7592  -4.1404  -3.0809  -2.9563  -2.7877  -2.1280
    -1.7158   2.3663   3.2883   4.1628

     occupation numbers
     1.0000   1.0000   1.0000   1.0000   1.0000   1.0000   1.0000   1.0000
     1.0000   1.0000   1.0000   1.0000   1.0000   1.0000   1.0000   1.0000
     0.0172   0.0000   0.0000   0.0000

          k = 0.2333 0.4041 0.0000 ( 48177 PWs)   bands (ev):

  -104.6355 -65.0295 -65.0286 -65.0284 -14.8093 -14.4328  -6.8336  -6.3129
    -5.5541  -5.0331  -4.8700  -4.2607  -3.0560  -2.9974  -2.7990  -2.1429
    -1.7105   2.2899   3.3444   4.4311

     occupation numbers
     1.0000   1.0000   1.0000   1.0000   1.0000   1.0000   1.0000   1.0000
     1.0000   1.0000   1.0000   1.0000   1.0000   1.0000   1.0000   1.0000
     0.0059   0.0000   0.0000   0.0000

          k = 0.2500 0.4330 0.0000 ( 48187 PWs)   bands (ev):

  -104.6355 -65.0295 -65.0286 -65.0284 -14.7255 -14.4192  -6.9144  -6.3411
    -5.6829  -4.9764  -4.9631  -4.3697  -3.0451  -3.0140  -2.8116  -2.1447
    -1.7256   2.2217   3.4330   4.6882

     occupation numbers
     1.0000   1.0000   1.0000   1.0000   1.0000   1.0000   1.0000   1.0000
     1.0000   1.0000   1.0000   1.0000   1.0000   1.0000   1.0000   1.0000
     0.0891   0.0000   0.0000   0.0000

          k = 0.2666 0.4618 0.0000 ( 48211 PWs)   bands (ev):

  -104.6355 -65.0295 -65.0286 -65.0284 -14.6506 -14.4136  -6.9658  -6.3457
    -5.8247  -5.0774  -4.8873  -4.4642  -3.0683  -2.9865  -2.8249  -2.1344
    -1.7598   2.1645   3.5572   4.8030

     occupation numbers
     1.0000   1.0000   1.0000   1.0000   1.0000   1.0000   1.0000   1.0000
     1.0000   1.0000   1.0000   1.0000   1.0000   1.0000   1.0000   1.0000
     1.0418   0.0000   0.0000   0.0000

          k = 0.2833 0.4907 0.0000 ( 48211 PWs)   bands (ev):

  -104.6355 -65.0295 -65.0286 -65.0285 -14.5863 -14.4158  -6.9860  -6.3306
    -5.9677  -5.1702  -4.8166  -4.5423  -3.0883  -2.9539  -2.8383  -2.1128
    -1.8095   2.1212   3.7145   4.6809

     occupation numbers
     1.0000   1.0000   1.0000   1.0000   1.0000   1.0000   1.0000   1.0000
     1.0000   1.0000   1.0000   1.0000   1.0000   1.0000   1.0000   1.0000
     1.0001   0.0000   0.0000   0.0000

          k = 0.3000 0.5196 0.0000 ( 48217 PWs)   bands (ev):

  -104.6355 -65.0295 -65.0286 -65.0285 -14.5335 -14.4255  -6.9784  -6.3025
    -6.0997  -5.2485  -4.7570  -4.6039  -3.1014  -2.9233  -2.8515  -2.0804
    -1.8689   2.0936   3.8953   4.5162

     occupation numbers
     1.0000   1.0000   1.0000   1.0000   1.0000   1.0000   1.0000   1.0000
     1.0000   1.0000   1.0000   1.0000   1.0000   1.0000   1.0000   1.0000
     1.0000   0.0000   0.0000   0.0000

          k = 0.3166 0.5484 0.0000 ( 48229 PWs)   bands (ev):

  -104.6355 -65.0295 -65.0286 -65.0285 -14.4926 -14.4417  -6.9549  -6.2722
    -6.2037  -5.3029  -4.7116  -4.6495  -3.1082  -2.8975  -2.8648  -2.0384
    -1.9313   2.0809   4.0794   4.3609

     occupation numbers
     1.0000   1.0000   1.0000   1.0000   1.0000   1.0000   1.0000   1.0000
     1.0000   1.0000   1.0000   1.0000   1.0000   1.0000   1.0000   1.0000
     1.0000   0.0000   0.0000   0.0000

          k = 0.3333 0.5773 0.0000 ( 48189 PWs)   bands (ev):

  -104.6355 -65.0295 -65.0285 -65.0285 -14.4633 -14.4632  -6.9399  -6.2525
    -6.2525  -5.3230  -4.6806  -4.6805  -3.1102  -2.8788  -2.8788  -1.9890
    -1.9887   2.0785   4.2292   4.2296

     occupation numbers
     1.0000   1.0000   1.0000   1.0000   1.0000   1.0000   1.0000   1.0000
     1.0000   1.0000   1.0000   1.0000   1.0000   1.0000   1.0000   1.0000
     1.0000   0.0000   0.0000   0.0000

          k = 0.3416 0.5629 0.0000 ( 48219 PWs)   bands (ev):

  -104.6355 -65.0295 -65.0286 -65.0285 -14.4757 -14.4527  -6.9452  -6.2502
    -6.2465  -5.3177  -4.6909  -4.6701  -3.1098  -2.8864  -2.8725  -2.0131
    -1.9623   2.0783   4.1762   4.2758

     occupation numbers
     1.0000   1.0000   1.0000   1.0000   1.0000   1.0000   1.0000   1.0000
     1.0000   1.0000   1.0000   1.0000   1.0000   1.0000   1.0000   1.0000
     1.0000   0.0000   0.0000   0.0000

          k = 0.3500 0.5484 0.0000 ( 48221 PWs)   bands (ev):

  -104.6355 -65.0295 -65.0286 -65.0285 -14.4888 -14.4446  -6.9617  -6.2539
    -6.2176  -5.3023  -4.6981  -4.6627  -3.1089  -2.8945  -2.8684  -2.0330
    -1.9351   2.0765   4.1334   4.2974

     occupation numbers
     1.0000   1.0000   1.0000   1.0000   1.0000   1.0000   1.0000   1.0000
     1.0000   1.0000   1.0000   1.0000   1.0000   1.0000   1.0000   1.0000
     1.0000   0.0000   0.0000   0.0000

          k = 0.3583 0.5340 0.0000 ( 48227 PWs)   bands (ev):

  -104.6355 -65.0295 -65.0286 -65.0285 -14.5026 -14.4387  -6.9884  -6.2633
    -6.1673  -5.2776  -4.7023  -4.6581  -3.1076  -2.9033  -2.8665  -2.0474
    -1.9079   2.0710   4.1027   4.2952

     occupation numbers
     1.0000   1.0000   1.0000   1.0000   1.0000   1.0000   1.0000   1.0000
     1.0000   1.0000   1.0000   1.0000   1.0000   1.0000   1.0000   1.0000
     1.0000   0.0000   0.0000   0.0000

          k = 0.3666 0.5196 0.0000 ( 48227 PWs)   bands (ev):

  -104.6355 -65.0295 -65.0286 -65.0285 -14.5168 -14.4349  -7.0229  -6.2778
    -6.0983  -5.2452  -4.7036  -4.6557  -3.1062  -2.9129  -2.8667  -2.0555
    -1.8810   2.0593   4.0856   4.2734

     occupation numbers
     1.0000   1.0000   1.0000   1.0000   1.0000   1.0000   1.0000   1.0000
     1.0000   1.0000   1.0000   1.0000   1.0000   1.0000   1.0000   1.0000
     1.0000   0.0000   0.0000   0.0000

          k = 0.3750 0.5051 0.0000 ( 48231 PWs)   bands (ev):

  -104.6355 -65.0295 -65.0286 -65.0285 -14.5312 -14.4329  -7.0623  -6.2965
    -6.0140  -5.2069  -4.7022  -4.6552  -3.1049  -2.9233  -2.8691  -2.0564
    -1.8549   2.0390   4.0839   4.2375

     occupation numbers
     1.0000   1.0000   1.0000   1.0000   1.0000   1.0000   1.0000   1.0000
     1.0000   1.0000   1.0000   1.0000   1.0000   1.0000   1.0000   1.0000
     1.0000   0.0000   0.0000   0.0000

          k = 0.3833 0.4907 0.0000 ( 48209 PWs)   bands (ev):

  -104.6355 -65.0295 -65.0286 -65.0284 -14.5457 -14.4325  -7.1043  -6.3181
    -5.9174  -5.1649  -4.6983  -4.6562  -3.1041  -2.9345  -2.8736  -2.0495
    -1.8299   2.0078   4.0990   4.1919

     occupation numbers
     1.0000   1.0000   1.0000   1.0000   1.0000   1.0000   1.0000   1.0000
     1.0000   1.0000   1.0000   1.0000   1.0000   1.0000   1.0000   1.0000
     1.0000   0.0000   0.0000   0.0000

          k = 0.3916 0.4763 0.0000 ( 48181 PWs)   bands (ev):

  -104.6355 -65.0295 -65.0286 -65.0284 -14.5600 -14.4333  -7.1470  -6.3416
    -5.8111  -5.1210  -4.6921  -4.6582  -3.1041  -2.9461  -2.8799  -2.0344
    -1.8063   1.9642   4.1316   4.1399

     occupation numbers
     1.0000   1.0000   1.0000   1.0000   1.0000   1.0000   1.0000   1.0000
     1.0000   1.0000   1.0000   1.0000   1.0000   1.0000   1.0000   1.0000
     1.0002   0.0000   0.0000   0.0000

          k = 0.4000 0.4618 0.0000 ( 48181 PWs)   bands (ev):

  -104.6355 -65.0295 -65.0286 -65.0284 -14.5739 -14.4353  -7.1893  -6.3661
    -5.6976  -5.0771  -4.6840  -4.6608  -3.1053  -2.9581  -2.8880  -2.0111
    -1.7845   1.9074   4.0832   4.1821

     occupation numbers
     1.0000   1.0000   1.0000   1.0000   1.0000   1.0000   1.0000   1.0000
     1.0000   1.0000   1.0000   1.0000   1.0000   1.0000   1.0000   1.0000
     1.0201   0.0000   0.0000   0.0000

          k = 0.4083 0.4474 0.0000 ( 48161 PWs)   bands (ev):

  -104.6355 -65.0295 -65.0286 -65.0284 -14.5874 -14.4381  -7.2300  -6.3907
    -5.5788  -5.0346  -4.6743  -4.6634  -3.1080  -2.9702  -2.8976  -1.9796
    -1.7646   1.8378   4.0218   4.2499

     occupation numbers
     1.0000   1.0000   1.0000   1.0000   1.0000   1.0000   1.0000   1.0000
     1.0000   1.0000   1.0000   1.0000   1.0000   1.0000   1.0000   1.0000
     1.0793   0.0000   0.0000   0.0000

          k = 0.4166 0.4330 0.0000 ( 48198 PWs)   bands (ev):

  -104.6355 -65.0295 -65.0287 -65.0284 -14.6003 -14.4414  -7.2686  -6.4148
    -5.4572  -4.9946  -4.6653  -4.6636  -3.1130  -2.9819  -2.9083  -1.9406
    -1.7467   1.7569   3.9536   4.3337

     occupation numbers
     1.0000   1.0000   1.0000   1.0000   1.0000   1.0000   1.0000   1.0000
     1.0000   1.0000   1.0000   1.0000   1.0000   1.0000   1.0000   1.0000
     0.6935   0.0000   0.0000   0.0000

          k = 0.4250 0.4186 0.0000 ( 48190 PWs)   bands (ev):

  -104.6355 -65.0295 -65.0287 -65.0284 -14.6124 -14.4452  -7.3045  -6.4379
    -5.3353  -4.9579  -4.6656  -4.6524  -3.1207  -2.9931  -2.9196  -1.8950
    -1.7309   1.6671   3.8737   4.3084

     occupation numbers
     1.0000   1.0000   1.0000   1.0000   1.0000   1.0000   1.0000   1.0000
     1.0000   1.0000   1.0000   1.0000   1.0000   1.0000   1.0000   1.0000
     0.1790   0.0000   0.0000   0.0000

          k = 0.4333 0.4041 0.0000 ( 48210 PWs)   bands (ev):

  -104.6355 -65.0295 -65.0287 -65.0284 -14.6235 -14.4491  -7.3373  -6.4594
    -5.2161  -4.9248  -4.6630  -4.6414  -3.1320  -3.0035  -2.9307  -1.8441
    -1.7172   1.5720   3.7751   4.1973

     occupation numbers
     1.0000   1.0000   1.0000   1.0000   1.0000   1.0000   1.0000   1.0000
     1.0000   1.0000   1.0000   1.0000   1.0000   1.0000   1.0000   1.0000
     0.0223   0.0000   0.0000   0.0000

          k = 0.4417 0.3897 0.0000 ( 48232 PWs)   bands (ev):

  -104.6355 -65.0295 -65.0287 -65.0283 -14.6337 -14.4530  -7.3668  -6.4790
    -5.1038  -4.8954  -4.6554  -4.6312  -3.1473  -3.0128  -2.9412  -1.7899
    -1.7055   1.4752   3.6549   4.1024

     occupation numbers
     1.0000   1.0000   1.0000   1.0000   1.0000   1.0000   1.0000   1.0000
     1.0000   1.0000   1.0000   1.0000   1.0000   1.0000   1.0000   1.0086
     0.0019   0.0000   0.0000   0.0000

          k = 0.4500 0.3753 0.0000 ( 48224 PWs)   bands (ev):

  -104.6355 -65.0295 -65.0287 -65.0283 -14.6427 -14.4568  -7.3927  -6.4965
    -5.0045  -4.8698  -4.6390  -4.6223  -3.1667  -3.0210  -2.9503  -1.7343
    -1.6959   1.3808   3.5209   4.0228

     occupation numbers
     1.0000   1.0000   1.0000   1.0000   1.0000   1.0000   1.0000   1.0000
     1.0000   1.0000   1.0000   1.0000   1.0000   1.0000   1.0000   0.2634
     0.0001   0.0000   0.0000   0.0000

          k = 0.4583 0.3608 0.0000 ( 48216 PWs)   bands (ev):

  -104.6355 -65.0295 -65.0287 -65.0283 -14.6504 -14.4602  -7.4149  -6.5117
    -4.9254  -4.8478  -4.6150  -4.6095  -3.1898  -3.0280  -2.9577  -1.6881
    -1.6802   1.2930   3.3869   3.9578

     occupation numbers
     1.0000   1.0000   1.0000   1.0000   1.0000   1.0000   1.0000   1.0000
     1.0000   1.0000   1.0000   1.0000   1.0000   1.0000   1.0000   0.0000
     0.0000   0.0000   0.0000   0.0000

          k = 0.4667 0.3464 0.0000 ( 48246 PWs)   bands (ev):

  -104.6355 -65.0295 -65.0287 -65.0283 -14.6569 -14.4631  -7.4332  -6.5243
    -4.8715  -4.8296  -4.6094  -4.5653  -3.2151  -3.0336  -2.9634  -1.6820
    -1.6302   1.2154   3.2647   3.9061

     occupation numbers
     1.0000   1.0000   1.0000   1.0000   1.0000   1.0000   1.0000   1.0000
     1.0000   1.0000   1.0000   1.0000   1.0000   1.0000   1.0000   0.0000
     0.0000   0.0000   0.0000   0.0000

          k = 0.4750 0.3320 0.0000 ( 48256 PWs)   bands (ev):

  -104.6355 -65.0295 -65.0287 -65.0283 -14.6620 -14.4656  -7.4475  -6.5342
    -4.8399  -4.8151  -4.6054  -4.5133  -3.2403  -3.0380  -2.9676  -1.6775
    -1.5873   1.1513   3.1624   3.8669

     occupation numbers
     1.0000   1.0000   1.0000   1.0000   1.0000   1.0000   1.0000   1.0000
     1.0000   1.0000   1.0000   1.0000   1.0000   1.0000   1.0000   0.0000
     0.0000   0.0000   0.0000   0.0000

          k = 0.4833 0.3175 0.0000 ( 48226 PWs)   bands (ev):

  -104.6355 -65.0295 -65.0287 -65.0283 -14.6656 -14.4673  -7.4578  -6.5413
    -4.8231  -4.8045  -4.6029  -4.4653  -3.2621  -3.0411  -2.9704  -1.6744
    -1.5543   1.1035   3.0857   3.8395

     occupation numbers
     1.0000   1.0000   1.0000   1.0000   1.0000   1.0000   1.0000   1.0000
     1.0000   1.0000   1.0000   1.0000   1.0000   1.0000   1.0000   0.0000
     0.0000   0.0000   0.0000   0.0000

          k = 0.4917 0.3031 0.0000 ( 48230 PWs)   bands (ev):

  -104.6355 -65.0295 -65.0287 -65.0283 -14.6679 -14.4684  -7.4640  -6.5457
    -4.8151  -4.7980  -4.6016  -4.4321  -3.2772  -3.0430  -2.9719  -1.6726
    -1.5334   1.0739   3.0381   3.8233

     occupation numbers
     1.0000   1.0000   1.0000   1.0000   1.0000   1.0000   1.0000   1.0000
     1.0000   1.0000   1.0000   1.0000   1.0000   1.0000   1.0000   0.0000
     0.0000   0.0000   0.0000   0.0000

          k = 0.5000 0.2887 0.0000 ( 48254 PWs)   bands (ev):

  -104.6355 -65.0295 -65.0287 -65.0283 -14.6686 -14.4688  -7.4661  -6.5471
    -4.8128  -4.7959  -4.6012  -4.4203  -3.2826  -3.0436  -2.9725  -1.6720
    -1.5263   1.0640   3.0220   3.8179

     occupation numbers
     1.0000   1.0000   1.0000   1.0000   1.0000   1.0000   1.0000   1.0000
     1.0000   1.0000   1.0000   1.0000   1.0000   1.0000   1.0000   0.0000
     0.0000   0.0000   0.0000   0.0000

          k = 0.4750 0.2742 0.0000 ( 48238 PWs)   bands (ev):

  -104.6355 -65.0295 -65.0287 -65.0283 -14.6820 -14.4661  -7.4489  -6.5384
    -4.8486  -4.7963  -4.5670  -4.4150  -3.2816  -3.0404  -2.9676  -1.6775
    -1.5265   1.0742   3.0288   3.7480

     occupation numbers
     1.0000   1.0000   1.0000   1.0000   1.0000   1.0000   1.0000   1.0000
     1.0000   1.0000   1.0000   1.0000   1.0000   1.0000   1.0000   0.0000
     0.0000   0.0000   0.0000   0.0000

          k = 0.4500 0.2598 0.0000 ( 48236 PWs)   bands (ev):

  -104.6355 -65.0295 -65.0287 -65.0283 -14.7185 -14.4612  -7.3978  -6.5127
    -4.9240  -4.7976  -4.4954  -4.3993  -3.2790  -3.0311  -2.9536  -1.6941
    -1.5270   1.1054   3.0483   3.6733

     occupation numbers
     1.0000   1.0000   1.0000   1.0000   1.0000   1.0000   1.0000   1.0000
     1.0000   1.0000   1.0000   1.0000   1.0000   1.0000   1.0000   0.0001
     0.0000   0.0000   0.0000   0.0000

          k = 0.4250 0.2454 0.0000 ( 48212 PWs)   bands (ev):

  -104.6355 -65.0295 -65.0287 -65.0283 -14.7719 -14.4590  -7.3145  -6.4712
    -5.0108  -4.7994  -4.4111  -4.3736  -3.2748  -3.0156  -2.9323  -1.7216
    -1.5277   1.1583   3.0769   3.6225

     occupation numbers
     1.0000   1.0000   1.0000   1.0000   1.0000   1.0000   1.0000   1.0000
     1.0000   1.0000   1.0000   1.0000   1.0000   1.0000   1.0000   0.0481
     0.0000   0.0000   0.0000   0.0000

          k = 0.4000 0.2309 0.0000 ( 48204 PWs)   bands (ev):

  -104.6355 -65.0295 -65.0286 -65.0283 -14.8370 -14.4628  -7.2019  -6.4164
    -5.0981  -4.8017  -4.3385  -4.3193  -3.2695  -2.9946  -2.9064  -1.7597
    -1.5285   1.2337   3.1090   3.5976

     occupation numbers
     1.0000   1.0000   1.0000   1.0000   1.0000   1.0000   1.0000   1.0000
     1.0000   1.0000   1.0000   1.0000   1.0000   1.0000   1.0000   1.0405
     0.0000   0.0000   0.0000   0.0000

          k = 0.3750 0.2165 0.0000 ( 48212 PWs)   bands (ev):

  -104.6355 -65.0295 -65.0286 -65.0283 -14.9102 -14.4735  -7.0644  -6.3513
    -5.1782  -4.8042  -4.2944  -4.2206  -3.2633  -2.9685  -2.8784  -1.8074
    -1.5290   1.3321   3.1368   3.5956

     occupation numbers
     1.0000   1.0000   1.0000   1.0000   1.0000   1.0000   1.0000   1.0000
     1.0000   1.0000   1.0000   1.0000   1.0000   1.0000   1.0000   1.0002
     0.0000   0.0000   0.0000   0.0000

          k = 0.3500 0.2021 0.0000 ( 48210 PWs)   bands (ev):

  -104.6355 -65.0295 -65.0286 -65.0283 -14.9889 -14.4909  -6.9087  -6.2799
    -5.2422  -4.8067  -4.2421  -4.1152  -3.2563  -2.9381  -2.8508  -1.8629
    -1.5289   1.4535   3.1532   3.6020

     occupation numbers
     1.0000   1.0000   1.0000   1.0000   1.0000   1.0000   1.0000   1.0000
     1.0000   1.0000   1.0000   1.0000   1.0000   1.0000   1.0000   1.0000
     0.0000   0.0000   0.0000   0.0000

          k = 0.3250 0.1876 0.0000 ( 48206 PWs)   bands (ev):

  -104.6355 -65.0296 -65.0286 -65.0283 -15.0706 -14.5143  -6.7461  -6.2055
    -5.2783  -4.8093  -4.1823  -4.0037  -3.2487  -2.9046  -2.8253  -1.9230
    -1.5277   1.5966   3.1526   3.5828

     occupation numbers
     1.0000   1.0000   1.0000   1.0000   1.0000   1.0000   1.0000   1.0000
     1.0000   1.0000   1.0000   1.0000   1.0000   1.0000   1.0000   1.0000
     0.0000   0.0000   0.0000   0.0000

          k = 0.3000 0.1732 0.0000 ( 48198 PWs)   bands (ev):

  -104.6355 -65.0296 -65.0285 -65.0283 -15.1534 -14.5423  -6.5964  -6.1252
    -5.2726  -4.8119  -4.1156  -3.8887  -3.2404  -2.8694  -2.8028  -1.9833
    -1.5247   1.7597   3.1297   3.5080

     occupation numbers
     1.0000   1.0000   1.0000   1.0000   1.0000   1.0000   1.0000   1.0000
     1.0000   1.0000   1.0000   1.0000   1.0000   1.0000   1.0000   1.0000
     0.0000   0.0000   0.0000   0.0000

          k = 0.2750 0.1588 0.0000 ( 48166 PWs)   bands (ev):

  -104.6355 -65.0296 -65.0285 -65.0282 -15.2355 -14.5738  -6.4899  -6.0240
    -5.2139  -4.8145  -4.0428  -3.7747  -3.2316  -2.8343  -2.7834  -2.0378
    -1.5191   1.9400   3.0787   3.3977

     occupation numbers
     1.0000   1.0000   1.0000   1.0000   1.0000   1.0000   1.0000   1.0000
     1.0000   1.0000   1.0000   1.0000   1.0000   1.0000   1.0000   1.0000
     0.0000   0.0000   0.0000   0.0000

          k = 0.2500 0.1443 0.0000 ( 48148 PWs)   bands (ev):

  -104.6355 -65.0296 -65.0284 -65.0282 -15.3152 -14.6074  -6.4462  -5.8909
    -5.0979  -4.8171  -3.9648  -3.6688  -3.2224  -2.8013  -2.7668  -2.0783
    -1.5103   2.1338   2.9950   3.2864

     occupation numbers
     1.0000   1.0000   1.0000   1.0000   1.0000   1.0000   1.0000   1.0000
     1.0000   1.0000   1.0000   1.0000   1.0000   1.0000   1.0000   1.0000
     0.0000   0.0000   0.0000   0.0000

          k = 0.2250 0.1299 0.0000 ( 48160 PWs)   bands (ev):

  -104.6355 -65.0296 -65.0284 -65.0282 -15.3912 -14.6417  -6.4522  -5.7391
    -4.9290  -4.8198  -3.8825  -3.5810  -3.2128  -2.7726  -2.7526  -2.0948
    -1.4973   2.3361   2.8827   3.1883

     occupation numbers
     1.0000   1.0000   1.0000   1.0000   1.0000   1.0000   1.0000   1.0000
     1.0000   1.0000   1.0000   1.0000   1.0000   1.0000   1.0000   1.0000
     0.0000   0.0000   0.0000   0.0000

          k = 0.2000 0.1155 0.0000 ( 48154 PWs)   bands (ev):

  -104.6355 -65.0296 -65.0283 -65.0282 -15.4622 -14.6757  -6.4852  -5.5868
    -4.8224  -4.7175  -3.7970  -3.5215  -3.2028  -2.7504  -2.7406  -2.0769
    -1.4797   2.5351   2.7581   3.1029

     occupation numbers
     1.0000   1.0000   1.0000   1.0000   1.0000   1.0000   1.0000   1.0000
     1.0000   1.0000   1.0000   1.0000   1.0000   1.0000   1.0000   1.0000
     0.0000   0.0000   0.0000   0.0000

          k = 0.1750 0.1010 0.0000 ( 48150 PWs)   bands (ev):

  -104.6355 -65.0296 -65.0283 -65.0282 -15.5271 -14.7082  -6.5300  -5.4422
    -4.8250  -4.4769  -3.7096  -3.4967  -3.1925  -2.7367  -2.7322  -2.0182
    -1.4574   2.5847   2.7652   3.0301

     occupation numbers
     1.0000   1.0000   1.0000   1.0000   1.0000   1.0000   1.0000   1.0000
     1.0000   1.0000   1.0000   1.0000   1.0000   1.0000   1.0000   1.0000
     0.0000   0.0000   0.0000   0.0000

          k = 0.1500 0.0866 0.0000 ( 48150 PWs)   bands (ev):

  -104.6355 -65.0296 -65.0283 -65.0282 -15.5850 -14.7383  -6.5775  -5.3077
    -4.8275  -4.2213  -3.6219  -3.5052  -3.1819  -2.7327  -2.7286  -1.9207
    -1.4311   2.4509   2.8897   3.0058

     occupation numbers
     1.0000   1.0000   1.0000   1.0000   1.0000   1.0000   1.0000   1.0000
     1.0000   1.0000   1.0000   1.0000   1.0000   1.0000   1.0000   1.0000
     0.0000   0.0000   0.0000   0.0000

          k = 0.1250 0.0722 0.0000 ( 48142 PWs)   bands (ev):

  -104.6355 -65.0296 -65.0282 -65.0282 -15.6353 -14.7651  -6.6228  -5.1842
    -4.8297  -3.9650  -3.5392  -3.5357  -3.1706  -2.7388  -2.7306  -1.7951
    -1.4023   2.3079   2.8665   3.0854

     occupation numbers
     1.0000   1.0000   1.0000   1.0000   1.0000   1.0000   1.0000   1.0000
     1.0000   1.0000   1.0000   1.0000   1.0000   1.0000   1.0000   1.0032
     0.0000   0.0000   0.0000   0.0000

          k = 0.1000 0.0577 0.0000 ( 48133 PWs)   bands (ev):

  -104.6355 -65.0296 -65.0282 -65.0282 -15.6772 -14.7879  -6.6628  -5.0732
    -4.8317  -3.7234  -3.5878  -3.4534  -3.1572  -2.7540  -2.7388  -1.6566
    -1.3733   2.1686   2.8185   3.0600

     occupation numbers
     1.0000   1.0000   1.0000   1.0000   1.0000   1.0000   1.0000   1.0000
     1.0000   1.0000   1.0000   1.0000   1.0000   1.0000   1.0000   0.0000
     0.0000   0.0000   0.0000   0.0000

          k = 0.0750 0.0433 0.0000 ( 48113 PWs)   bands (ev):

  -104.6355 -65.0296 -65.0282 -65.0282 -15.7103 -14.8062  -6.6954  -4.9775
    -4.8334  -3.6453  -3.5092  -3.3784  -3.1374  -2.7762  -2.7540  -1.5223
    -1.3466   2.0416   2.7768   2.9023

     occupation numbers
     1.0000   1.0000   1.0000   1.0000   1.0000   1.0000   1.0000   1.0000
     1.0000   1.0000   1.0000   1.0000   1.0000   1.0000   1.0000   0.0000
     0.0000   0.0000   0.0000   0.0000

          k = 0.0500 0.0289 0.0000 ( 48107 PWs)   bands (ev):

  -104.6355 -65.0296 -65.0282 -65.0282 -15.7341 -14.8197  -6.7194  -4.9021
    -4.8346  -3.6938  -3.3544  -3.3156  -3.0999  -2.8011  -2.7779  -1.4091
    -1.3250   1.9378   2.7267   2.7558

     occupation numbers
     1.0000   1.0000   1.0000   1.0000   1.0000   1.0000   1.0000   1.0000
     1.0000   1.0000   1.0000   1.0000   1.0000   1.0000   1.0000   0.0000
     0.0000   0.0000   0.0000   0.0000

          k = 0.0250 0.0144 0.0000 ( 48115 PWs)   bands (ev):

  -104.6355 -65.0296 -65.0282 -65.0282 -15.7486 -14.8278  -6.7341  -4.8528
    -4.8353  -3.7285  -3.2760  -3.2720  -3.0381  -2.8217  -2.8096  -1.3330
    -1.3110   1.8692   2.6175   2.7308

     occupation numbers
     1.0000   1.0000   1.0000   1.0000   1.0000   1.0000   1.0000   1.0000
     1.0000   1.0000   1.0000   1.0000   1.0000   1.0000   1.0000   0.0000
     0.0000   0.0000   0.0000   0.0000

          k = 0.0000 0.0000 0.0000 ( 48107 PWs)   bands (ev):

  -104.6355 -65.0296 -65.0282 -65.0282 -15.7534 -14.8306  -6.7391  -4.8356
    -4.8356  -3.7411  -3.2561  -3.2561  -3.0002  -2.8300  -2.8300  -1.3061
    -1.3061   1.8451   2.5769   2.7242

     occupation numbers
     1.0000   1.0000   1.0000   1.0000   1.0000   1.0000   1.0000   1.0000
     1.0000   1.0000   1.0000   1.0000   1.0000   1.0000   1.0000   0.0000
     0.0000   0.0000   0.0000   0.0000

     the Fermi energy is    -1.7387 ev
     (compare with:    -1.7806 eV, computed in scf)

     Writing all to output data dir ./tmp/c.save/

     init_run     :      0.83s CPU      0.87s WALL (       1 calls)
     electrons    :     19.69s CPU     19.86s WALL (       1 calls)

     Called by init_run:
     wfcinit      :      0.00s CPU      0.01s WALL (       1 calls)
     wfcinit:atom :      0.04s CPU      0.04s WALL (      61 calls)
     wfcinit:wfcr :      0.97s CPU      0.97s WALL (      61 calls)
     potinit      :      0.04s CPU      0.04s WALL (       1 calls)
     hinit0       :      0.70s CPU      0.72s WALL (       1 calls)

     Called by electrons:
     c_bands      :     19.69s CPU     19.86s WALL (       1 calls)
     v_of_rho     :      0.03s CPU      0.03s WALL (       1 calls)
     v_h          :      0.00s CPU      0.00s WALL (       1 calls)
     v_xc         :      0.02s CPU      0.02s WALL (       1 calls)

     Called by c_bands:
     init_us_2    :      0.05s CPU      0.05s WALL (      61 calls)
     init_us_2:cp :      0.05s CPU      0.05s WALL (      61 calls)
     cegterg      :     18.19s CPU     18.30s WALL (     125 calls)

     Called by sum_band:

     Called by *egterg:
     cdiaghg      :      0.99s CPU      0.99s WALL (    2024 calls)
     cegterg:over :      1.34s CPU      1.35s WALL (    1963 calls)
     cegterg:upda :      0.55s CPU      0.55s WALL (    1963 calls)
     cegterg:last :      0.64s CPU      0.64s WALL (     973 calls)
     h_psi        :     14.92s CPU     15.03s WALL (    2149 calls)
     g_psi        :      0.15s CPU      0.15s WALL (    1963 calls)

     Called by h_psi:
     h_psi:calbec :      1.06s CPU      1.06s WALL (    2149 calls)
     vloc_psi     :     12.88s CPU     12.97s WALL (    2149 calls)
     add_vuspsi   :      0.84s CPU      0.84s WALL (    2149 calls)

     General routines
     calbec       :      1.05s CPU      1.06s WALL (    2149 calls)
     fft          :      0.10s CPU      0.11s WALL (      12 calls)
     ffts         :      0.00s CPU      0.00s WALL (       1 calls)
     fftw         :     11.05s CPU     11.12s WALL (   39492 calls)
     interpolate  :      0.00s CPU      0.00s WALL (       1 calls)
     davcio       :      0.04s CPU      0.10s WALL (     122 calls)

     Parallel routines

     PWSCF        :     21.22s CPU     21.75s WALL


   This run was terminated on:  15:29:18  27Jun2023

=------------------------------------------------------------------------------=
   JOB DONE.
=------------------------------------------------------------------------------=
