
     Program PROJWFC v.7.1 starts on 27Jun2023 at 15:29:19 

     This program is part of the open-source Quantum ESPRESSO suite
     for quantum simulation of materials; please cite
         "P. Giannozzi et al., J. Phys.:Condens. Matter 21 395502 (2009);
         "P. Giannozzi et al., J. Phys.:Condens. Matter 29 465901 (2017);
         "P. Giannozzi et al., J. Chem. Phys. 152 154105 (2020);
          URL http://www.quantum-espresso.org", 
     in publications or presentations arising from this work. More details at
     http://www.quantum-espresso.org/quote

     Parallel version (MPI & OpenMP), running on      20 processor cores
     Number of MPI processes:                20
     Threads/MPI process:                     1

     MPI processes distributed on     1 nodes
     R & G space division:  proc/nbgrp/npool/nimage =      20
     225726 MiB available memory on the printing compute node when the environment starts
 

     Reading xml data from directory:

     ./tmp/c.save/

     IMPORTANT: XC functional enforced from input :
     Exchange-correlation= PBE
                           (   1   4   3   4   0   0   0)
     Any further DFT definition will be discarded
     Please, verify this is what you really want

 
     Parallelization info
     --------------------
     sticks:   dense  smooth     PW     G-vecs:    dense   smooth      PW
     Min          93      89     24                20481    19267    2790
     Max          94      90     25                20502    19300    2817
     Sum        1879    1789    499               409943   385631   56191
 
     Using Slab Decomposition
 

     Gaussian broadening (read from input): ngauss,degauss=   0    0.003000


     Calling projwave .... 
     Subspace diagonalization in iterative solution of the eigenvalue problem:
     one sub-group per band group will be used
     ELPA distributed-memory algorithm (size of sub-group:  4*  4 procs)

     linear algebra parallelized on  16 procs
 
  Problem Sizes 
  natomwfc =           18
  nx       =            5
  nbnd     =           20
  nkstot   =           61
  npwx     =         2398
  nkb      =           54
 

     --------------------- ATOM    1 ----------------------

     Orbital quantum number l = 0
     occupation matrix ns (before diag.):
       1.995
     eigenvalues:
       1.995
     eigenvectors (columns):
       1.000

     Orbital quantum number l = 1
     occupation matrix ns (before diag.):
       2.000  0.000  0.000
       0.000  2.000 -0.000
       0.000 -0.000  2.000
     eigenvalues:
       2.000  2.000  2.000
     eigenvectors (columns):
       1.000  0.000  0.000
       0.000  1.000  0.000
       0.000  0.000  1.000

     Orbital quantum number l = 2
     occupation matrix ns (before diag.):
       1.947 -0.044 -0.023 -0.024 -0.050
      -0.044  1.737  0.054  0.004 -0.199
      -0.023  0.054  1.656 -0.207  0.004
      -0.024  0.004 -0.207  1.785 -0.022
      -0.050 -0.199  0.004 -0.022  1.758
     eigenvalues:
       1.487  1.544  1.938  1.952  1.961
     eigenvectors (columns):
      -0.006  0.181 -0.087  0.251 -0.947
       0.353  0.619  0.257 -0.648 -0.079
      -0.750  0.278 -0.494 -0.340  0.013
      -0.511  0.304  0.743  0.299  0.073
       0.229  0.643 -0.361  0.559  0.303

     Orbital quantum number l = 0
     occupation matrix ns (before diag.):
       0.633
     eigenvalues:
       0.633
     eigenvectors (columns):
       1.000

     --------------------- ATOM    2 ----------------------

     Orbital quantum number l = 0
     occupation matrix ns (before diag.):
       1.934
     eigenvalues:
       1.934
     eigenvectors (columns):
       1.000

     Orbital quantum number l = 1
     occupation matrix ns (before diag.):
       1.823  0.003  0.000
       0.003  1.705  0.051
       0.000  0.051  1.658
     eigenvalues:
       1.625  1.738  1.824
     eigenvectors (columns):
       0.008 -0.030 -1.000
      -0.542  0.840 -0.030
       0.840  0.542 -0.010

     --------------------- ATOM    3 ----------------------

     Orbital quantum number l = 0
     occupation matrix ns (before diag.):
       1.934
     eigenvalues:
       1.934
     eigenvectors (columns):
       1.000

     Orbital quantum number l = 1
     occupation matrix ns (before diag.):
       1.823  0.003  0.000
       0.003  1.705  0.051
       0.000  0.051  1.658
     eigenvalues:
       1.625  1.738  1.824
     eigenvectors (columns):
       0.008 -0.030 -1.000
      -0.542  0.840 -0.030
       0.840  0.542 -0.010

     Rotating the orbitals to the diagonal representation of ns...

     Atomic states used for projection
     (read from pseudopotential files):

     state #   1: atom   1 (Ni ), wfc  1 (l=0 m= 1)
     state #   2: atom   1 (Ni ), wfc  2 (l=1 m= 1)
     state #   3: atom   1 (Ni ), wfc  2 (l=1 m= 2)
     state #   4: atom   1 (Ni ), wfc  2 (l=1 m= 3)
     state #   5: atom   1 (Ni ), wfc  3 (l=2 m= 1)
     state #   6: atom   1 (Ni ), wfc  3 (l=2 m= 2)
     state #   7: atom   1 (Ni ), wfc  3 (l=2 m= 3)
     state #   8: atom   1 (Ni ), wfc  3 (l=2 m= 4)
     state #   9: atom   1 (Ni ), wfc  3 (l=2 m= 5)
     state #  10: atom   1 (Ni ), wfc  4 (l=0 m= 1)
     state #  11: atom   2 (I  ), wfc  1 (l=0 m= 1)
     state #  12: atom   2 (I  ), wfc  2 (l=1 m= 1)
     state #  13: atom   2 (I  ), wfc  2 (l=1 m= 2)
     state #  14: atom   2 (I  ), wfc  2 (l=1 m= 3)
     state #  15: atom   3 (I  ), wfc  1 (l=0 m= 1)
     state #  16: atom   3 (I  ), wfc  2 (l=1 m= 1)
     state #  17: atom   3 (I  ), wfc  2 (l=1 m= 2)
     state #  18: atom   3 (I  ), wfc  2 (l=1 m= 3)

 k =   0.0000000000  0.0000000000  0.0000000000
==== e(   1) =  -104.63551 eV ==== 
     psi = 0.996*[#   1]+0.002*[#  14]+0.002*[#  18]
    |psi|^2 = 1.000
==== e(   2) =   -65.02962 eV ==== 
     psi = 0.999*[#   2]
    |psi|^2 = 1.000
==== e(   3) =   -65.02816 eV ==== 
     psi = 0.797*[#   3]+0.202*[#   4]
    |psi|^2 = 1.000
==== e(   4) =   -65.02816 eV ==== 
     psi = 0.797*[#   4]+0.202*[#   3]
    |psi|^2 = 1.000
==== e(   5) =   -15.75342 eV ==== 
     psi = 0.366*[#  11]+0.366*[#  15]+0.257*[#  10]+0.004*[#  14]+0.004*[#  18]
          +0.001*[#   1]
    |psi|^2 = 1.000
==== e(   6) =   -14.83055 eV ==== 
     psi = 0.495*[#  11]+0.495*[#  15]+0.003*[#  14]+0.003*[#  18]
    |psi|^2 = 0.997
==== e(   7) =    -6.73908 eV ==== 
     psi = 0.390*[#  14]+0.390*[#  18]+0.075*[#  10]+0.059*[#   9]+0.035*[#  11]
          +0.035*[#  15]+0.004*[#   8]+0.003*[#   1]+0.002*[#   6]
    |psi|^2 = 0.995
==== e(   8) =    -4.83559 eV ==== 
     psi = 0.314*[#   5]+0.176*[#   6]+0.174*[#  12]+0.174*[#  16]+0.048*[#  13]
          +0.048*[#  17]+0.044*[#   7]+0.011*[#   9]+0.001*[#   8]
    |psi|^2 = 0.991
==== e(   9) =    -4.83559 eV ==== 
     psi = 0.342*[#   6]+0.174*[#  13]+0.174*[#  17]+0.164*[#   5]+0.048*[#  12]
          +0.048*[#  16]+0.023*[#   7]+0.013*[#   9]+0.003*[#   8]
    |psi|^2 = 0.991
==== e(  10) =    -3.74111 eV ==== 
     psi = 0.494*[#  14]+0.494*[#  18]+0.003*[#  11]+0.003*[#  15]
    |psi|^2 = 0.995
==== e(  11) =    -3.25608 eV ==== 
     psi = 0.493*[#   7]+0.365*[#   8]+0.078*[#   5]+0.037*[#   9]+0.012*[#   6]
          
    |psi|^2 = 0.984
==== e(  12) =    -3.25608 eV ==== 
     psi = 0.545*[#   8]+0.350*[#   7]+0.057*[#   5]+0.019*[#   9]+0.013*[#   6]
          
    |psi|^2 = 0.984
==== e(  13) =    -3.00022 eV ==== 
     psi = 0.817*[#   9]+0.057*[#   8]+0.030*[#   6]+0.023*[#  10]+0.021*[#  14]
          +0.021*[#  18]+0.007*[#   7]+0.005*[#  11]+0.005*[#  15]
    |psi|^2 = 0.986
==== e(  14) =    -2.82999 eV ==== 
     psi = 0.389*[#  12]+0.389*[#  16]+0.103*[#  13]+0.103*[#  17]
    |psi|^2 = 0.985
==== e(  15) =    -2.82999 eV ==== 
     psi = 0.389*[#  13]+0.389*[#  17]+0.103*[#  12]+0.103*[#  16]
    |psi|^2 = 0.985
==== e(  16) =    -1.30614 eV ==== 
     psi = 0.280*[#   6]+0.219*[#  13]+0.219*[#  17]+0.124*[#   5]+0.056*[#  12]
          +0.056*[#  16]+0.022*[#   7]+0.012*[#   9]+0.006*[#   8]
    |psi|^2 = 0.998
==== e(  17) =    -1.30614 eV ==== 
     psi = 0.252*[#   5]+0.220*[#  12]+0.220*[#  16]+0.135*[#   6]+0.056*[#  13]
          +0.056*[#  17]+0.046*[#   7]+0.010*[#   9]+0.002*[#   8]
    |psi|^2 = 0.998
==== e(  18) =     1.84510 eV ==== 
     psi = 0.379*[#  10]+0.054*[#  11]+0.054*[#  15]+0.049*[#  14]+0.049*[#  18]
          +0.002*[#   9]
    |psi|^2 = 0.588
==== e(  19) =     2.57689 eV ==== 
     psi = 0.001*[#  11]+0.001*[#  15]
    |psi|^2 = 0.004
==== e(  20) =     2.72418 eV ==== 
 
    |psi|^2 = 0.000

 k =   0.0166650000  0.0288646267  0.0000000000
==== e(   1) =  -104.63551 eV ==== 
     psi = 0.996*[#   1]+0.002*[#  14]+0.002*[#  18]
    |psi|^2 = 1.000
==== e(   2) =   -65.02962 eV ==== 
     psi = 0.999*[#   2]
    |psi|^2 = 1.000
==== e(   3) =   -65.02817 eV ==== 
     psi = 0.750*[#   4]+0.250*[#   3]
    |psi|^2 = 1.000
==== e(   4) =   -65.02817 eV ==== 
     psi = 0.750*[#   3]+0.250*[#   4]
    |psi|^2 = 1.000
==== e(   5) =   -15.74698 eV ==== 
     psi = 0.367*[#  11]+0.367*[#  15]+0.255*[#  10]+0.004*[#  14]+0.004*[#  18]
          +0.001*[#   1]
    |psi|^2 = 1.000
==== e(   6) =   -14.82690 eV ==== 
     psi = 0.495*[#  11]+0.495*[#  15]+0.003*[#  14]+0.003*[#  18]
    |psi|^2 = 0.997
==== e(   7) =    -6.73250 eV ==== 
     psi = 0.390*[#  14]+0.390*[#  18]+0.076*[#  10]+0.058*[#   9]+0.035*[#  11]
          +0.035*[#  15]+0.004*[#   8]+0.003*[#   1]+0.002*[#   6]
    |psi|^2 = 0.995
==== e(   8) =    -4.85845 eV ==== 
     psi = 0.338*[#   6]+0.176*[#  13]+0.176*[#  17]+0.156*[#   5]+0.046*[#  12]
          +0.046*[#  16]+0.023*[#   7]+0.013*[#   9]+0.006*[#  14]+0.006*[#  18]
          +0.004*[#   8]
    |psi|^2 = 0.991
==== e(   9) =    -4.83527 eV ==== 
     psi = 0.318*[#   5]+0.177*[#  12]+0.177*[#  16]+0.171*[#   6]+0.046*[#  13]
          +0.046*[#  17]+0.044*[#   7]+0.011*[#   9]+0.001*[#   8]
    |psi|^2 = 0.991
==== e(  10) =    -3.72444 eV ==== 
     psi = 0.487*[#  14]+0.487*[#  18]+0.003*[#   6]+0.003*[#  13]+0.003*[#  17]
          +0.003*[#  11]+0.003*[#  15]+0.002*[#   5]
    |psi|^2 = 0.994
==== e(  11) =    -3.28107 eV ==== 
     psi = 0.530*[#   7]+0.217*[#   8]+0.088*[#   5]+0.068*[#   9]+0.027*[#  13]
          +0.027*[#  17]+0.013*[#   6]+0.007*[#  12]+0.007*[#  16]
    |psi|^2 = 0.984
==== e(  12) =    -3.27955 eV ==== 
     psi = 0.617*[#   8]+0.239*[#   7]+0.042*[#   5]+0.020*[#  12]+0.020*[#  16]
          +0.019*[#   9]+0.016*[#   6]+0.005*[#  13]+0.005*[#  17]
    |psi|^2 = 0.984
==== e(  13) =    -3.04804 eV ==== 
     psi = 0.578*[#   9]+0.098*[#   8]+0.067*[#  13]+0.067*[#  17]+0.053*[#   7]
          +0.024*[#  10]+0.020*[#   6]+0.018*[#  12]+0.018*[#  16]+0.013*[#  14]
          +0.013*[#  18]+0.006*[#  11]+0.006*[#  15]+0.003*[#   5]
    |psi|^2 = 0.985
==== e(  14) =    -2.81914 eV ==== 
     psi = 0.368*[#  12]+0.368*[#  16]+0.098*[#  13]+0.098*[#  17]+0.035*[#   8]
          +0.015*[#   7]+0.002*[#   9]
    |psi|^2 = 0.985
==== e(  15) =    -2.80458 eV ==== 
     psi = 0.291*[#  13]+0.291*[#  17]+0.207*[#   9]+0.077*[#  12]+0.077*[#  16]
          +0.015*[#   7]+0.009*[#  14]+0.009*[#  18]+0.006*[#   6]
    |psi|^2 = 0.986
==== e(  16) =    -1.34159 eV ==== 
     psi = 0.281*[#   6]+0.214*[#  13]+0.214*[#  17]+0.128*[#   5]+0.058*[#  12]
          +0.058*[#  16]+0.023*[#   7]+0.012*[#   9]+0.006*[#   8]
    |psi|^2 = 0.995
==== e(  17) =    -1.31283 eV ==== 
     psi = 0.252*[#   5]+0.217*[#  12]+0.217*[#  16]+0.138*[#   6]+0.059*[#  13]
          +0.059*[#  17]+0.044*[#   7]+0.009*[#   9]+0.002*[#   8]
    |psi|^2 = 0.997
==== e(  18) =     1.87705 eV ==== 
     psi = 0.372*[#  10]+0.052*[#  11]+0.052*[#  15]+0.048*[#  14]+0.048*[#  18]
          +0.001*[#  13]+0.001*[#  17]+0.001*[#   9]
    |psi|^2 = 0.578
==== e(  19) =     2.63077 eV ==== 
     psi = 0.001*[#  11]+0.001*[#  15]
    |psi|^2 = 0.007
==== e(  20) =     2.73302 eV ==== 
 
    |psi|^2 = 0.000

 k =   0.0333300000  0.0577292534  0.0000000000
==== e(   1) =  -104.63551 eV ==== 
     psi = 0.996*[#   1]+0.002*[#  14]+0.002*[#  18]
    |psi|^2 = 1.000
==== e(   2) =   -65.02962 eV ==== 
     psi = 0.999*[#   2]
    |psi|^2 = 1.000
==== e(   3) =   -65.02818 eV ==== 
     psi = 0.750*[#   4]+0.250*[#   3]
    |psi|^2 = 1.000
==== e(   4) =   -65.02817 eV ==== 
     psi = 0.750*[#   3]+0.250*[#   4]
    |psi|^2 = 1.000
==== e(   5) =   -15.72776 eV ==== 
     psi = 0.369*[#  11]+0.369*[#  15]+0.251*[#  10]+0.004*[#  14]+0.004*[#  18]
          +0.001*[#   1]
    |psi|^2 = 1.000
==== e(   6) =   -14.81606 eV ==== 
     psi = 0.494*[#  11]+0.494*[#  15]+0.003*[#  14]+0.003*[#  18]
    |psi|^2 = 0.997
==== e(   7) =    -6.71297 eV ==== 
     psi = 0.389*[#  14]+0.389*[#  18]+0.077*[#  10]+0.057*[#   9]+0.035*[#  11]
          +0.035*[#  15]+0.004*[#   8]+0.003*[#   1]+0.002*[#   6]
    |psi|^2 = 0.995
==== e(   8) =    -4.92263 eV ==== 
     psi = 0.318*[#   6]+0.176*[#  13]+0.176*[#  17]+0.146*[#   5]+0.046*[#  12]
          +0.046*[#  16]+0.022*[#   7]+0.021*[#  14]+0.021*[#  18]+0.013*[#   9]
          +0.004*[#   8]
    |psi|^2 = 0.991
==== e(   9) =    -4.83453 eV ==== 
     psi = 0.318*[#   5]+0.178*[#  12]+0.178*[#  16]+0.170*[#   6]+0.047*[#  13]
          +0.047*[#  17]+0.042*[#   7]+0.011*[#   9]
    |psi|^2 = 0.991
==== e(  10) =    -3.67970 eV ==== 
     psi = 0.471*[#  14]+0.471*[#  18]+0.011*[#  13]+0.011*[#  17]+0.011*[#   6]
          +0.005*[#   5]+0.003*[#  12]+0.003*[#  16]+0.002*[#  11]+0.002*[#  15]
          
    |psi|^2 = 0.993
==== e(  11) =    -3.38630 eV ==== 
     psi = 0.319*[#   7]+0.154*[#   9]+0.120*[#  13]+0.120*[#  17]+0.106*[#   8]
          +0.065*[#   5]+0.033*[#  12]+0.033*[#  16]+0.019*[#   6]+0.008*[#  10]
          +0.003*[#  11]+0.003*[#  15]
    |psi|^2 = 0.983
==== e(  12) =    -3.34347 eV ==== 
     psi = 0.543*[#   8]+0.207*[#   7]+0.061*[#  12]+0.061*[#  16]+0.042*[#   5]
          +0.019*[#   6]+0.017*[#  13]+0.017*[#  17]+0.016*[#   9]
    |psi|^2 = 0.983
==== e(  13) =    -3.11281 eV ==== 
     psi = 0.297*[#   9]+0.247*[#   7]+0.209*[#   8]+0.061*[#  13]+0.061*[#  17]
          +0.022*[#  10]+0.022*[#   5]+0.016*[#  12]+0.016*[#  16]+0.008*[#   6]
          +0.006*[#  14]+0.006*[#  18]+0.006*[#  11]+0.006*[#  15]
    |psi|^2 = 0.985
==== e(  14) =    -2.79346 eV ==== 
     psi = 0.322*[#  12]+0.322*[#  16]+0.110*[#   8]+0.088*[#  13]+0.088*[#  17]
          +0.048*[#   7]+0.005*[#   9]+0.002*[#   5]
    |psi|^2 = 0.985
==== e(  15) =    -2.76956 eV ==== 
     psi = 0.407*[#   9]+0.193*[#  13]+0.193*[#  17]+0.053*[#  12]+0.053*[#  16]
          +0.038*[#   7]+0.019*[#  14]+0.019*[#  18]+0.011*[#   6]+0.002*[#   5]
          
    |psi|^2 = 0.988
==== e(  16) =    -1.43746 eV ==== 
     psi = 0.290*[#   6]+0.202*[#  13]+0.202*[#  17]+0.133*[#   5]+0.060*[#  12]
          +0.060*[#  16]+0.022*[#   7]+0.012*[#   9]+0.005*[#   8]+0.001*[#  11]
          +0.001*[#  15]
    |psi|^2 = 0.990
==== e(  17) =    -1.33440 eV ==== 
     psi = 0.256*[#   5]+0.214*[#  12]+0.214*[#  16]+0.140*[#   6]+0.062*[#  13]
          +0.062*[#  17]+0.040*[#   7]+0.008*[#   9]+0.001*[#   8]
    |psi|^2 = 0.996
==== e(  18) =     1.96674 eV ==== 
     psi = 0.352*[#  10]+0.047*[#  11]+0.047*[#  15]+0.044*[#  14]+0.044*[#  18]
          +0.005*[#  13]+0.005*[#  17]+0.001*[#  12]+0.001*[#  16]
    |psi|^2 = 0.549
==== e(  19) =     2.75078 eV ==== 
 
    |psi|^2 = 0.003
==== e(  20) =     2.78879 eV ==== 
     psi = 0.002*[#  13]+0.002*[#  17]
    |psi|^2 = 0.009

 k =   0.0499950000  0.0865938801  0.0000000000
==== e(   1) =  -104.63551 eV ==== 
     psi = 0.995*[#   1]+0.002*[#  14]+0.002*[#  18]
    |psi|^2 = 1.000
==== e(   2) =   -65.02962 eV ==== 
     psi = 0.999*[#   2]
    |psi|^2 = 1.000
==== e(   3) =   -65.02820 eV ==== 
     psi = 0.750*[#   4]+0.250*[#   3]
    |psi|^2 = 1.000
==== e(   4) =   -65.02817 eV ==== 
     psi = 0.750*[#   3]+0.250*[#   4]
    |psi|^2 = 1.000
==== e(   5) =   -15.69604 eV ==== 
     psi = 0.371*[#  11]+0.371*[#  15]+0.244*[#  10]+0.004*[#  14]+0.004*[#  18]
          +0.001*[#  13]+0.001*[#  17]+0.001*[#   1]
    |psi|^2 = 1.000
==== e(   6) =   -14.79833 eV ==== 
     psi = 0.494*[#  11]+0.494*[#  15]+0.003*[#  14]+0.003*[#  18]+0.001*[#  13]
          +0.001*[#  17]
    |psi|^2 = 0.997
==== e(   7) =    -6.68125 eV ==== 
     psi = 0.388*[#  14]+0.388*[#  18]+0.080*[#  10]+0.056*[#   9]+0.035*[#  11]
          +0.035*[#  15]+0.004*[#   8]+0.003*[#   1]+0.002*[#   6]+0.001*[#  13]
          +0.001*[#  17]
    |psi|^2 = 0.995
==== e(   8) =    -5.01841 eV ==== 
     psi = 0.291*[#   6]+0.179*[#  13]+0.179*[#  17]+0.133*[#   5]+0.047*[#  12]
          +0.047*[#  16]+0.038*[#  14]+0.038*[#  18]+0.022*[#   7]+0.012*[#   9]
          +0.005*[#   8]
    |psi|^2 = 0.991
==== e(   9) =    -4.83403 eV ==== 
     psi = 0.317*[#   5]+0.181*[#  12]+0.181*[#  16]+0.168*[#   6]+0.048*[#  13]
          +0.048*[#  17]+0.038*[#   7]+0.011*[#   9]
    |psi|^2 = 0.991
==== e(  10) =    -3.61951 eV ==== 
     psi = 0.451*[#  14]+0.451*[#  18]+0.022*[#  13]+0.022*[#  17]+0.017*[#   6]
          +0.009*[#   5]+0.007*[#  12]+0.007*[#  16]+0.002*[#  11]+0.002*[#  15]
          
    |psi|^2 = 0.991
==== e(  11) =    -3.58630 eV ==== 
     psi = 0.199*[#  13]+0.199*[#  17]+0.172*[#   9]+0.158*[#   7]+0.056*[#  12]
          +0.056*[#  16]+0.044*[#   5]+0.042*[#   8]+0.021*[#   6]+0.020*[#  10]
          +0.007*[#  11]+0.007*[#  15]
    |psi|^2 = 0.983
==== e(  12) =    -3.43634 eV ==== 
     psi = 0.464*[#   8]+0.173*[#   7]+0.101*[#  12]+0.101*[#  16]+0.043*[#   5]
          +0.029*[#  13]+0.029*[#  17]+0.024*[#   6]+0.012*[#   9]+0.003*[#  14]
          +0.003*[#  18]
    |psi|^2 = 0.982
==== e(  13) =    -3.14091 eV ==== 
     psi = 0.398*[#   7]+0.274*[#   8]+0.166*[#   9]+0.036*[#   5]+0.028*[#  13]
          +0.028*[#  17]+0.018*[#  10]+0.008*[#  12]+0.008*[#  16]+0.005*[#  11]
          +0.005*[#  15]+0.004*[#  14]+0.004*[#  18]+0.004*[#   6]
    |psi|^2 = 0.985
==== e(  14) =    -2.76544 eV ==== 
     psi = 0.271*[#  12]+0.271*[#  16]+0.188*[#   8]+0.084*[#   7]+0.079*[#  13]
          +0.079*[#  17]+0.009*[#   9]+0.002*[#   5]+0.001*[#   6]
    |psi|^2 = 0.985
==== e(  15) =    -2.74600 eV ==== 
     psi = 0.525*[#   9]+0.132*[#  13]+0.132*[#  17]+0.057*[#   7]+0.038*[#  12]
          +0.038*[#  16]+0.025*[#  14]+0.025*[#  18]+0.013*[#   6]+0.002*[#   5]
          
    |psi|^2 = 0.989
==== e(  16) =    -1.56797 eV ==== 
     psi = 0.304*[#   6]+0.182*[#  13]+0.182*[#  17]+0.141*[#   5]+0.065*[#  12]
          +0.065*[#  16]+0.021*[#   7]+0.012*[#   9]+0.003*[#   8]+0.003*[#  11]
          +0.003*[#  15]+0.002*[#  14]+0.002*[#  18]
    |psi|^2 = 0.986
==== e(  17) =    -1.37371 eV ==== 
     psi = 0.263*[#   5]+0.208*[#  12]+0.208*[#  16]+0.143*[#   6]+0.066*[#  13]
          +0.066*[#  17]+0.034*[#   7]+0.006*[#   9]
    |psi|^2 = 0.994
==== e(  18) =     2.09895 eV ==== 
     psi = 0.323*[#  10]+0.041*[#  11]+0.041*[#  15]+0.039*[#  14]+0.039*[#  18]
          +0.009*[#  13]+0.009*[#  17]+0.002*[#  12]+0.002*[#  16]
    |psi|^2 = 0.506
==== e(  19) =     2.79516 eV ==== 
 
    |psi|^2 = 0.002
==== e(  20) =     3.00253 eV ==== 
     psi = 0.004*[#  13]+0.004*[#  17]+0.001*[#   6]+0.001*[#  12]+0.001*[#  16]
          
    |psi|^2 = 0.016

 k =   0.0666600000  0.1154585068  0.0000000000
==== e(   1) =  -104.63551 eV ==== 
     psi = 0.995*[#   1]+0.002*[#  14]+0.002*[#  18]
    |psi|^2 = 1.000
==== e(   2) =   -65.02961 eV ==== 
     psi = 0.999*[#   2]
    |psi|^2 = 1.000
==== e(   3) =   -65.02823 eV ==== 
     psi = 0.750*[#   4]+0.250*[#   3]
    |psi|^2 = 1.000
==== e(   4) =   -65.02818 eV ==== 
     psi = 0.750*[#   3]+0.250*[#   4]
    |psi|^2 = 1.000
==== e(   5) =   -15.65227 eV ==== 
     psi = 0.375*[#  11]+0.375*[#  15]+0.234*[#  10]+0.004*[#  14]+0.004*[#  18]
          +0.002*[#  13]+0.002*[#  17]
    |psi|^2 = 1.000
==== e(   6) =   -14.77426 eV ==== 
     psi = 0.492*[#  11]+0.492*[#  15]+0.003*[#  14]+0.003*[#  18]+0.002*[#  13]
          +0.002*[#  17]+0.002*[#   6]
    |psi|^2 = 0.998
==== e(   7) =    -6.63876 eV ==== 
     psi = 0.386*[#  14]+0.386*[#  18]+0.083*[#  10]+0.053*[#   9]+0.036*[#  11]
          +0.036*[#  15]+0.005*[#   8]+0.002*[#   1]+0.002*[#  13]+0.002*[#  17]
          +0.002*[#   6]+0.001*[#   7]
    |psi|^2 = 0.995
==== e(   8) =    -5.13609 eV ==== 
     psi = 0.261*[#   6]+0.185*[#  13]+0.185*[#  17]+0.118*[#   5]+0.051*[#  14]
          +0.051*[#  18]+0.049*[#  12]+0.049*[#  16]+0.021*[#   7]+0.011*[#   9]
          +0.006*[#   8]
    |psi|^2 = 0.990
==== e(   9) =    -4.83492 eV ==== 
     psi = 0.315*[#   5]+0.184*[#  12]+0.184*[#  16]+0.165*[#   6]+0.049*[#  13]
          +0.049*[#  17]+0.034*[#   7]+0.010*[#   9]
    |psi|^2 = 0.991
==== e(  10) =    -3.84219 eV ==== 
     psi = 0.238*[#  13]+0.238*[#  17]+0.151*[#   9]+0.088*[#   7]+0.068*[#  12]
          +0.068*[#  16]+0.034*[#   5]+0.029*[#  10]+0.020*[#   8]+0.020*[#   6]
          +0.011*[#  11]+0.011*[#  15]+0.003*[#  14]+0.003*[#  18]
    |psi|^2 = 0.982
==== e(  11) =    -3.56681 eV ==== 
     psi = 0.249*[#  14]+0.249*[#  18]+0.152*[#   8]+0.068*[#  12]+0.068*[#  16]
          +0.046*[#   7]+0.043*[#   6]+0.041*[#   5]+0.032*[#  13]+0.032*[#  17]
          +0.002*[#   9]+0.001*[#  11]+0.001*[#  15]
    |psi|^2 = 0.988
==== e(  12) =    -3.54130 eV ==== 
     psi = 0.244*[#   8]+0.188*[#  14]+0.188*[#  18]+0.095*[#   7]+0.077*[#  12]
          +0.077*[#  16]+0.042*[#  13]+0.042*[#  17]+0.016*[#   5]+0.008*[#   9]
          +0.006*[#   6]
    |psi|^2 = 0.983
==== e(  13) =    -3.15060 eV ==== 
     psi = 0.464*[#   7]+0.296*[#   8]+0.119*[#   9]+0.039*[#   5]+0.015*[#  10]
          +0.013*[#  13]+0.013*[#  17]+0.004*[#  11]+0.004*[#  12]+0.004*[#  15]
          +0.004*[#  16]+0.003*[#  14]+0.003*[#  18]+0.003*[#   6]
    |psi|^2 = 0.985
==== e(  14) =    -2.74484 eV ==== 
     psi = 0.258*[#   8]+0.223*[#  12]+0.223*[#  16]+0.119*[#   7]+0.072*[#  13]
          +0.072*[#  17]+0.013*[#   9]+0.005*[#   6]
    |psi|^2 = 0.986
==== e(  15) =    -2.73290 eV ==== 
     psi = 0.600*[#   9]+0.093*[#  13]+0.093*[#  17]+0.071*[#   7]+0.030*[#  14]
          +0.030*[#  18]+0.029*[#  12]+0.029*[#  16]+0.013*[#   6]+0.001*[#   5]
          
    |psi|^2 = 0.990
==== e(  16) =    -1.70279 eV ==== 
     psi = 0.321*[#   6]+0.157*[#  13]+0.157*[#  17]+0.151*[#   5]+0.074*[#  12]
          +0.074*[#  16]+0.017*[#   7]+0.012*[#   9]+0.006*[#  14]+0.006*[#  18]
          +0.004*[#  11]+0.004*[#  15]+0.001*[#   8]
    |psi|^2 = 0.984
==== e(  17) =    -1.43239 eV ==== 
     psi = 0.273*[#   5]+0.200*[#  12]+0.200*[#  16]+0.147*[#   6]+0.069*[#  13]
          +0.069*[#  17]+0.028*[#   7]+0.004*[#   9]
    |psi|^2 = 0.992
==== e(  18) =     2.25671 eV ==== 
     psi = 0.291*[#  10]+0.034*[#  14]+0.034*[#  18]+0.033*[#  11]+0.033*[#  15]
          +0.012*[#  13]+0.012*[#  17]+0.003*[#  12]+0.003*[#  16]
    |psi|^2 = 0.457
==== e(  19) =     2.84932 eV ==== 
 
    |psi|^2 = 0.002
==== e(  20) =     3.25274 eV ==== 
     psi = 0.004*[#  13]+0.004*[#  17]+0.002*[#  12]+0.002*[#  16]+0.001*[#   6]
          
    |psi|^2 = 0.018

 k =   0.0833250000  0.1443231335  0.0000000000
==== e(   1) =  -104.63551 eV ==== 
     psi = 0.995*[#   1]+0.002*[#  14]+0.002*[#  18]
    |psi|^2 = 1.000
==== e(   2) =   -65.02961 eV ==== 
     psi = 0.999*[#   2]
    |psi|^2 = 1.000
==== e(   3) =   -65.02827 eV ==== 
     psi = 0.749*[#   4]+0.250*[#   3]
    |psi|^2 = 1.000
==== e(   4) =   -65.02819 eV ==== 
     psi = 0.750*[#   3]+0.250*[#   4]
    |psi|^2 = 1.000
==== e(   5) =   -15.59711 eV ==== 
     psi = 0.380*[#  11]+0.380*[#  15]+0.222*[#  10]+0.004*[#  14]+0.004*[#  18]
          +0.003*[#  13]+0.003*[#  17]
    |psi|^2 = 1.000
==== e(   6) =   -14.74460 eV ==== 
     psi = 0.491*[#  11]+0.491*[#  15]+0.003*[#   6]+0.003*[#  13]+0.003*[#  17]
          +0.002*[#  14]+0.002*[#  18]+0.001*[#   5]
    |psi|^2 = 0.998
==== e(   7) =    -6.58781 eV ==== 
     psi = 0.382*[#  14]+0.382*[#  18]+0.088*[#  10]+0.049*[#   9]+0.037*[#  11]
          +0.037*[#  15]+0.005*[#   8]+0.004*[#  13]+0.004*[#  17]+0.002*[#   1]
          +0.002*[#   6]+0.001*[#   7]+0.001*[#  12]+0.001*[#  16]
    |psi|^2 = 0.995
==== e(   8) =    -5.26818 eV ==== 
     psi = 0.230*[#   6]+0.195*[#  13]+0.195*[#  17]+0.103*[#   5]+0.061*[#  14]
          +0.061*[#  18]+0.051*[#  12]+0.051*[#  16]+0.021*[#   7]+0.011*[#   9]
          +0.007*[#   8]+0.001*[#  11]+0.001*[#  15]
    |psi|^2 = 0.989
==== e(   9) =    -4.83878 eV ==== 
     psi = 0.311*[#   5]+0.189*[#  12]+0.189*[#  16]+0.162*[#   6]+0.051*[#  13]
          +0.051*[#  17]+0.028*[#   7]+0.010*[#   9]
    |psi|^2 = 0.990
==== e(  10) =    -4.12418 eV ==== 
     psi = 0.254*[#  13]+0.254*[#  17]+0.129*[#   9]+0.076*[#  12]+0.076*[#  16]
          +0.055*[#   7]+0.036*[#  10]+0.028*[#   5]+0.019*[#   6]+0.013*[#  11]
          +0.013*[#  15]+0.011*[#   8]+0.008*[#  14]+0.008*[#  18]
    |psi|^2 = 0.982
==== e(  11) =    -3.68154 eV ==== 
     psi = 0.336*[#   8]+0.162*[#  12]+0.162*[#  16]+0.113*[#   7]+0.059*[#   5]
          +0.051*[#   6]+0.046*[#  13]+0.046*[#  17]+0.006*[#   9]
    |psi|^2 = 0.981
==== e(  12) =    -3.50708 eV ==== 
     psi = 0.420*[#  14]+0.420*[#  18]+0.053*[#  13]+0.053*[#  17]+0.014*[#  12]
          +0.014*[#  16]+0.005*[#   6]+0.002*[#   5]+0.001*[#   7]
    |psi|^2 = 0.987
==== e(  13) =    -3.15371 eV ==== 
     psi = 0.499*[#   7]+0.305*[#   8]+0.097*[#   9]+0.035*[#   5]+0.014*[#  10]
          +0.007*[#  13]+0.007*[#  17]+0.004*[#   6]+0.003*[#  11]+0.003*[#  14]
          +0.003*[#  15]+0.003*[#  18]+0.002*[#  12]+0.002*[#  16]
    |psi|^2 = 0.985
==== e(  14) =    -2.73722 eV ==== 
     psi = 0.317*[#   8]+0.177*[#  12]+0.177*[#  16]+0.152*[#   7]+0.066*[#  13]
          +0.066*[#  17]+0.018*[#   9]+0.013*[#   6]
    |psi|^2 = 0.986
==== e(  15) =    -2.72789 eV ==== 
     psi = 0.652*[#   9]+0.082*[#   7]+0.067*[#  13]+0.067*[#  17]+0.032*[#  14]
          +0.032*[#  18]+0.023*[#  12]+0.023*[#  16]+0.012*[#   6]
    |psi|^2 = 0.991
==== e(  16) =    -1.81504 eV ==== 
     psi = 0.335*[#   6]+0.162*[#   5]+0.127*[#  13]+0.127*[#  17]+0.087*[#  12]
          +0.087*[#  16]+0.013*[#  14]+0.013*[#  18]+0.012*[#   7]+0.011*[#   9]
          +0.005*[#  11]+0.005*[#  15]
    |psi|^2 = 0.985
==== e(  17) =    -1.50949 eV ==== 
     psi = 0.285*[#   5]+0.191*[#  12]+0.191*[#  16]+0.152*[#   6]+0.072*[#  13]
          +0.072*[#  17]+0.021*[#   7]+0.002*[#   9]
    |psi|^2 = 0.988
==== e(  18) =     2.42740 eV ==== 
     psi = 0.264*[#  10]+0.029*[#  14]+0.029*[#  18]+0.027*[#  11]+0.027*[#  15]
          +0.014*[#  13]+0.014*[#  17]+0.004*[#  12]+0.004*[#  16]
    |psi|^2 = 0.412
==== e(  19) =     2.91421 eV ==== 
 
    |psi|^2 = 0.003
==== e(  20) =     3.25283 eV ==== 
     psi = 0.222*[#  10]+0.022*[#  13]+0.022*[#  17]+0.022*[#  11]+0.022*[#  15]
          +0.021*[#  14]+0.021*[#  18]+0.009*[#  12]+0.009*[#  16]+0.004*[#   9]
          +0.001*[#   7]+0.001*[#   8]
    |psi|^2 = 0.377

 k =   0.0999900000  0.1731877602  0.0000000000
==== e(   1) =  -104.63550 eV ==== 
     psi = 0.995*[#   1]+0.001*[#  14]+0.001*[#  18]
    |psi|^2 = 1.000
==== e(   2) =   -65.02960 eV ==== 
     psi = 0.999*[#   2]
    |psi|^2 = 1.000
==== e(   3) =   -65.02830 eV ==== 
     psi = 0.749*[#   4]+0.250*[#   3]
    |psi|^2 = 1.000
==== e(   4) =   -65.02820 eV ==== 
     psi = 0.750*[#   3]+0.250*[#   4]
    |psi|^2 = 1.000
==== e(   5) =   -15.53146 eV ==== 
     psi = 0.386*[#  11]+0.386*[#  15]+0.208*[#  10]+0.005*[#  14]+0.005*[#  18]
          +0.004*[#  13]+0.004*[#  17]+0.001*[#  12]+0.001*[#  16]
    |psi|^2 = 1.000
==== e(   6) =   -14.71029 eV ==== 
     psi = 0.490*[#  11]+0.490*[#  15]+0.004*[#   6]+0.003*[#  13]+0.003*[#  17]
          +0.002*[#   5]+0.002*[#  14]+0.002*[#  18]
    |psi|^2 = 0.998
==== e(   7) =    -6.53212 eV ==== 
     psi = 0.374*[#  14]+0.374*[#  18]+0.096*[#  10]+0.044*[#   9]+0.038*[#  11]
          +0.038*[#  15]+0.008*[#  13]+0.008*[#  17]+0.005*[#   8]+0.002*[#   1]
          +0.002*[#   7]+0.002*[#  12]+0.002*[#  16]+0.002*[#   6]
    |psi|^2 = 0.995
==== e(   8) =    -5.40904 eV ==== 
     psi = 0.208*[#  13]+0.208*[#  17]+0.199*[#   6]+0.088*[#   5]+0.067*[#  14]
          +0.067*[#  18]+0.055*[#  12]+0.055*[#  16]+0.021*[#   7]+0.010*[#   9]
          +0.009*[#   8]+0.001*[#  11]+0.001*[#  15]
    |psi|^2 = 0.988
==== e(   9) =    -4.84766 eV ==== 
     psi = 0.307*[#   5]+0.195*[#  12]+0.195*[#  16]+0.157*[#   6]+0.053*[#  13]
          +0.053*[#  17]+0.021*[#   7]+0.009*[#   9]
    |psi|^2 = 0.990
==== e(  10) =    -4.41222 eV ==== 
     psi = 0.259*[#  13]+0.259*[#  17]+0.114*[#   9]+0.080*[#  12]+0.080*[#  16]
          +0.041*[#  10]+0.037*[#   7]+0.024*[#   5]+0.018*[#  14]+0.018*[#  18]
          +0.017*[#   6]+0.014*[#  11]+0.014*[#  15]+0.006*[#   8]
    |psi|^2 = 0.982
==== e(  11) =    -3.82074 eV ==== 
     psi = 0.287*[#   8]+0.180*[#  12]+0.180*[#  16]+0.091*[#   7]+0.066*[#   5]
          +0.066*[#   6]+0.052*[#  13]+0.052*[#  17]+0.004*[#   9]+0.001*[#  14]
          +0.001*[#  18]
    |psi|^2 = 0.980
==== e(  12) =    -3.48565 eV ==== 
     psi = 0.398*[#  14]+0.398*[#  18]+0.072*[#  13]+0.072*[#  17]+0.021*[#  12]
          +0.021*[#  16]
    |psi|^2 = 0.985
==== e(  13) =    -3.15376 eV ==== 
     psi = 0.522*[#   7]+0.309*[#   8]+0.085*[#   9]+0.029*[#   5]+0.013*[#  10]
          +0.005*[#   6]+0.004*[#  13]+0.004*[#  14]+0.004*[#  17]+0.004*[#  18]
          +0.003*[#  11]+0.003*[#  15]+0.001*[#  12]+0.001*[#  16]
    |psi|^2 = 0.985
==== e(  14) =    -2.74230 eV ==== 
     psi = 0.363*[#   8]+0.180*[#   7]+0.136*[#  12]+0.136*[#  16]+0.058*[#  13]
          +0.058*[#  17]+0.027*[#   6]+0.023*[#   9]+0.002*[#  14]+0.002*[#  18]
          
    |psi|^2 = 0.986
==== e(  15) =    -2.72998 eV ==== 
     psi = 0.689*[#   9]+0.089*[#   7]+0.048*[#  13]+0.048*[#  17]+0.033*[#  14]
          +0.033*[#  18]+0.020*[#  12]+0.020*[#  16]+0.010*[#   6]
    |psi|^2 = 0.992
==== e(  16) =    -1.88700 eV ==== 
     psi = 0.342*[#   6]+0.171*[#   5]+0.099*[#  12]+0.099*[#  16]+0.096*[#  13]
          +0.096*[#  17]+0.027*[#  14]+0.027*[#  18]+0.009*[#   9]+0.007*[#  11]
          +0.007*[#  15]+0.006*[#   7]+0.002*[#   8]
    |psi|^2 = 0.987
==== e(  17) =    -1.60144 eV ==== 
     psi = 0.300*[#   5]+0.179*[#  12]+0.179*[#  16]+0.158*[#   6]+0.074*[#  13]
          +0.074*[#  17]+0.014*[#   7]+0.001*[#  14]+0.001*[#  18]
    |psi|^2 = 0.984
==== e(  18) =     2.60413 eV ==== 
     psi = 0.252*[#  10]+0.026*[#  14]+0.026*[#  18]+0.022*[#  11]+0.022*[#  15]
          +0.016*[#  13]+0.016*[#  17]+0.005*[#  12]+0.005*[#  16]
    |psi|^2 = 0.391
==== e(  19) =     2.98592 eV ==== 
 
    |psi|^2 = 0.005
==== e(  20) =     3.13681 eV ==== 
     psi = 0.211*[#  10]+0.026*[#  13]+0.026*[#  17]+0.019*[#  14]+0.019*[#  18]
          +0.018*[#  11]+0.018*[#  15]+0.013*[#  12]+0.013*[#  16]+0.003*[#   9]
          +0.002*[#   7]+0.001*[#   6]+0.001*[#   8]
    |psi|^2 = 0.370

 k =   0.1166550000  0.2020523870  0.0000000000
==== e(   1) =  -104.63550 eV ==== 
     psi = 0.995*[#   1]+0.001*[#  14]+0.001*[#  18]
    |psi|^2 = 1.000
==== e(   2) =   -65.02959 eV ==== 
     psi = 0.999*[#   2]
    |psi|^2 = 1.000
==== e(   3) =   -65.02835 eV ==== 
     psi = 0.749*[#   4]+0.250*[#   3]
    |psi|^2 = 1.000
==== e(   4) =   -65.02822 eV ==== 
     psi = 0.750*[#   3]+0.250*[#   4]
    |psi|^2 = 1.000
==== e(   5) =   -15.45639 eV ==== 
     psi = 0.393*[#  11]+0.393*[#  15]+0.191*[#  10]+0.005*[#  13]+0.005*[#  17]
          +0.005*[#  14]+0.005*[#  18]+0.001*[#  12]+0.001*[#  16]
    |psi|^2 = 1.000
==== e(   6) =   -14.67248 eV ==== 
     psi = 0.489*[#  11]+0.489*[#  15]+0.005*[#   6]+0.004*[#  13]+0.004*[#  17]
          +0.002*[#   5]+0.002*[#  14]+0.002*[#  18]
    |psi|^2 = 0.998
==== e(   7) =    -6.47775 eV ==== 
     psi = 0.361*[#  14]+0.361*[#  18]+0.106*[#  10]+0.039*[#  11]+0.039*[#  15]
          +0.036*[#   9]+0.016*[#  13]+0.016*[#  17]+0.006*[#   8]+0.004*[#  12]
          +0.004*[#  16]+0.003*[#   7]+0.002*[#   1]+0.001*[#   6]
    |psi|^2 = 0.995
==== e(   8) =    -5.55403 eV ==== 
     psi = 0.223*[#  13]+0.223*[#  17]+0.167*[#   6]+0.072*[#   5]+0.070*[#  14]
          +0.070*[#  18]+0.059*[#  12]+0.059*[#  16]+0.021*[#   7]+0.011*[#   8]
          +0.009*[#   9]+0.001*[#  11]+0.001*[#  15]
    |psi|^2 = 0.987
==== e(   9) =    -4.86399 eV ==== 
     psi = 0.302*[#   5]+0.200*[#  12]+0.200*[#  16]+0.152*[#   6]+0.057*[#  13]
          +0.057*[#  17]+0.014*[#   7]+0.007*[#   9]
    |psi|^2 = 0.990
==== e(  10) =    -4.68929 eV ==== 
     psi = 0.254*[#  13]+0.254*[#  17]+0.105*[#   9]+0.084*[#  12]+0.084*[#  16]
          +0.042*[#  10]+0.034*[#  14]+0.034*[#  18]+0.026*[#   7]+0.019*[#   5]
          +0.015*[#   6]+0.013*[#  11]+0.013*[#  15]+0.003*[#   8]
    |psi|^2 = 0.982
==== e(  11) =    -3.96568 eV ==== 
     psi = 0.243*[#   8]+0.194*[#  12]+0.194*[#  16]+0.083*[#   6]+0.074*[#   5]
          +0.071*[#   7]+0.055*[#  13]+0.055*[#  17]+0.003*[#  14]+0.003*[#  18]
          +0.002*[#   9]
    |psi|^2 = 0.980
==== e(  12) =    -3.50158 eV ==== 
     psi = 0.369*[#  14]+0.369*[#  18]+0.090*[#  13]+0.090*[#  17]+0.029*[#  12]
          +0.029*[#  16]+0.004*[#   8]+0.002*[#   7]+0.001*[#   6]
    |psi|^2 = 0.984
==== e(  13) =    -3.15174 eV ==== 
     psi = 0.541*[#   7]+0.311*[#   8]+0.075*[#   9]+0.021*[#   5]+0.013*[#  10]
          +0.008*[#   6]+0.004*[#  14]+0.004*[#  18]+0.002*[#  11]+0.002*[#  15]
          +0.002*[#  13]+0.002*[#  17]
    |psi|^2 = 0.985
==== e(  14) =    -2.75304 eV ==== 
     psi = 0.394*[#   8]+0.201*[#   7]+0.104*[#  12]+0.104*[#  16]+0.047*[#  13]
          +0.047*[#  17]+0.040*[#   6]+0.027*[#   9]+0.009*[#  14]+0.009*[#  18]
          +0.002*[#   5]
    |psi|^2 = 0.986
==== e(  15) =    -2.73937 eV ==== 
     psi = 0.719*[#   9]+0.094*[#   7]+0.034*[#  13]+0.034*[#  17]+0.033*[#  14]
          +0.033*[#  18]+0.018*[#  12]+0.018*[#  16]+0.007*[#   6]
    |psi|^2 = 0.992
==== e(  16) =    -1.91441 eV ==== 
     psi = 0.341*[#   6]+0.176*[#   5]+0.104*[#  12]+0.104*[#  16]+0.070*[#  13]
          +0.070*[#  17]+0.045*[#  14]+0.045*[#  18]+0.009*[#   8]+0.007*[#   9]
          +0.007*[#  11]+0.007*[#  15]+0.003*[#   7]
    |psi|^2 = 0.989
==== e(  17) =    -1.70244 eV ==== 
     psi = 0.317*[#   5]+0.165*[#   6]+0.165*[#  12]+0.165*[#  16]+0.076*[#  13]
          +0.076*[#  17]+0.008*[#   7]+0.002*[#  14]+0.002*[#  18]+0.001*[#  11]
          +0.001*[#  15]
    |psi|^2 = 0.981
==== e(  18) =     2.77852 eV ==== 
     psi = 0.302*[#  10]+0.028*[#  14]+0.028*[#  18]+0.024*[#  13]+0.024*[#  17]
          +0.023*[#  11]+0.023*[#  15]+0.008*[#  12]+0.008*[#  16]+0.001*[#   7]
          
    |psi|^2 = 0.469
==== e(  19) =     3.01135 eV ==== 
     psi = 0.149*[#  10]+0.022*[#  13]+0.022*[#  17]+0.015*[#  12]+0.015*[#  16]
          +0.012*[#  14]+0.012*[#  18]+0.010*[#  11]+0.010*[#  15]+0.002*[#   9]
          +0.002*[#   6]+0.002*[#   5]+0.002*[#   7]
    |psi|^2 = 0.275
==== e(  20) =     3.05865 eV ==== 
     psi = 0.001*[#   6]
    |psi|^2 = 0.006

 k =   0.1333200000  0.2309170137  0.0000000000
==== e(   1) =  -104.63550 eV ==== 
     psi = 0.995*[#   1]+0.001*[#  14]+0.001*[#  18]
    |psi|^2 = 1.000
==== e(   2) =   -65.02958 eV ==== 
     psi = 0.999*[#   2]
    |psi|^2 = 1.000
==== e(   3) =   -65.02839 eV ==== 
     psi = 0.749*[#   4]+0.250*[#   3]
    |psi|^2 = 1.000
==== e(   4) =   -65.02823 eV ==== 
     psi = 0.749*[#   3]+0.250*[#   4]
    |psi|^2 = 1.000
==== e(   5) =   -15.37324 eV ==== 
     psi = 0.401*[#  11]+0.401*[#  15]+0.173*[#  10]+0.006*[#  13]+0.006*[#  17]
          +0.005*[#  14]+0.005*[#  18]+0.002*[#  12]+0.002*[#  16]
    |psi|^2 = 0.999
==== e(   6) =   -14.63250 eV ==== 
     psi = 0.488*[#  11]+0.488*[#  15]+0.006*[#   6]+0.004*[#  13]+0.004*[#  17]
          +0.003*[#   5]+0.001*[#  14]+0.001*[#  18]
    |psi|^2 = 0.998
==== e(   7) =    -6.43448 eV ==== 
     psi = 0.336*[#  14]+0.336*[#  18]+0.120*[#  10]+0.042*[#  11]+0.042*[#  15]
          +0.031*[#  13]+0.031*[#  17]+0.027*[#   9]+0.008*[#  12]+0.008*[#  16]
          +0.007*[#   8]+0.005*[#   7]+0.002*[#   1]
    |psi|^2 = 0.995
==== e(   8) =    -5.69871 eV ==== 
     psi = 0.238*[#  13]+0.238*[#  17]+0.137*[#   6]+0.071*[#  14]+0.071*[#  18]
          +0.064*[#  12]+0.064*[#  16]+0.058*[#   5]+0.021*[#   7]+0.013*[#   8]
          +0.008*[#   9]+0.001*[#  11]+0.001*[#  15]
    |psi|^2 = 0.985
==== e(   9) =    -4.93913 eV ==== 
     psi = 0.242*[#  13]+0.242*[#  17]+0.093*[#   9]+0.072*[#  12]+0.072*[#  16]
          +0.062*[#  14]+0.062*[#  18]+0.039*[#   5]+0.036*[#  10]+0.029*[#   6]
          +0.014*[#   7]+0.010*[#  11]+0.010*[#  15]+0.002*[#   8]
    |psi|^2 = 0.984
==== e(  10) =    -4.88940 eV ==== 
     psi = 0.269*[#   5]+0.220*[#  12]+0.220*[#  16]+0.131*[#   6]+0.058*[#  13]
          +0.058*[#  17]+0.013*[#   9]+0.012*[#   7]+0.004*[#  10]
    |psi|^2 = 0.988
==== e(  11) =    -4.11145 eV ==== 
     psi = 0.206*[#   8]+0.204*[#  12]+0.204*[#  16]+0.100*[#   6]+0.082*[#   5]
          +0.057*[#  13]+0.057*[#  17]+0.056*[#   7]+0.005*[#  14]+0.005*[#  18]
          +0.001*[#   9]+0.001*[#  11]+0.001*[#  15]
    |psi|^2 = 0.981
==== e(  12) =    -3.55772 eV ==== 
     psi = 0.335*[#  14]+0.335*[#  18]+0.104*[#  13]+0.104*[#  17]+0.036*[#  12]
          +0.036*[#  16]+0.011*[#   6]+0.010*[#   8]+0.007*[#   7]+0.003*[#   5]
          +0.002*[#   9]
    |psi|^2 = 0.984
==== e(  13) =    -3.14775 eV ==== 
     psi = 0.558*[#   7]+0.310*[#   8]+0.065*[#   9]+0.014*[#   5]+0.012*[#  10]
          +0.011*[#   6]+0.005*[#  14]+0.005*[#  18]+0.002*[#  11]+0.002*[#  15]
          
    |psi|^2 = 0.986
==== e(  14) =    -2.76153 eV ==== 
     psi = 0.415*[#   8]+0.213*[#   7]+0.083*[#  12]+0.083*[#  16]+0.046*[#   6]
          +0.037*[#  13]+0.037*[#  17]+0.029*[#   9]+0.019*[#  14]+0.019*[#  18]
          +0.003*[#   5]
    |psi|^2 = 0.987
==== e(  15) =    -2.75698 eV ==== 
     psi = 0.745*[#   9]+0.095*[#   7]+0.032*[#  14]+0.032*[#  18]+0.024*[#  13]
          +0.024*[#  17]+0.017*[#  12]+0.017*[#  16]+0.004*[#   6]+0.002*[#   5]
          
    |psi|^2 = 0.992
==== e(  16) =    -1.90486 eV ==== 
     psi = 0.338*[#   6]+0.178*[#   5]+0.103*[#  12]+0.103*[#  16]+0.066*[#  14]
          +0.066*[#  18]+0.050*[#  13]+0.050*[#  17]+0.016*[#   8]+0.007*[#  11]
          +0.007*[#  15]+0.006*[#   9]
    |psi|^2 = 0.991
==== e(  17) =    -1.80513 eV ==== 
     psi = 0.334*[#   5]+0.173*[#   6]+0.150*[#  12]+0.150*[#  16]+0.078*[#  13]
          +0.078*[#  17]+0.004*[#  14]+0.004*[#  18]+0.003*[#   7]+0.002*[#   8]
          +0.001*[#  11]+0.001*[#  15]
    |psi|^2 = 0.979
==== e(  18) =     2.83209 eV ==== 
     psi = 0.434*[#  10]+0.049*[#  13]+0.049*[#  17]+0.034*[#  14]+0.034*[#  18]
          +0.027*[#  11]+0.027*[#  15]+0.026*[#  12]+0.026*[#  16]+0.003*[#   7]
          +0.001*[#   1]+0.001*[#   6]+0.001*[#   8]+0.001*[#   5]
    |psi|^2 = 0.712
==== e(  19) =     3.02228 eV ==== 
     psi = 0.020*[#  10]+0.002*[#  14]+0.002*[#  18]+0.002*[#  11]+0.002*[#  15]
          +0.001*[#  12]+0.001*[#  16]+0.001*[#   5]
    |psi|^2 = 0.035
==== e(  20) =     3.12507 eV ==== 
     psi = 0.001*[#   6]+0.001*[#   8]+0.001*[#  12]+0.001*[#  13]+0.001*[#  16]
          +0.001*[#  17]
    |psi|^2 = 0.009

 k =   0.1499850000  0.2597816404  0.0000000000
==== e(   1) =  -104.63550 eV ==== 
     psi = 0.995*[#   1]+0.001*[#  14]+0.001*[#  18]
    |psi|^2 = 1.000
==== e(   2) =   -65.02957 eV ==== 
     psi = 0.999*[#   2]
    |psi|^2 = 1.000
==== e(   3) =   -65.02843 eV ==== 
     psi = 0.749*[#   4]+0.250*[#   3]
    |psi|^2 = 1.000
==== e(   4) =   -65.02825 eV ==== 
     psi = 0.749*[#   3]+0.250*[#   4]
    |psi|^2 = 1.000
==== e(   5) =   -15.28360 eV ==== 
     psi = 0.409*[#  11]+0.409*[#  15]+0.153*[#  10]+0.007*[#  13]+0.007*[#  17]
          +0.005*[#  14]+0.005*[#  18]+0.002*[#  12]+0.002*[#  16]
    |psi|^2 = 0.999
==== e(   6) =   -14.59183 eV ==== 
     psi = 0.488*[#  11]+0.488*[#  15]+0.007*[#   6]+0.004*[#   5]+0.004*[#  13]
          +0.004*[#  17]
    |psi|^2 = 0.998
==== e(   7) =    -6.41685 eV ==== 
     psi = 0.293*[#  14]+0.293*[#  18]+0.139*[#  10]+0.058*[#  13]+0.058*[#  17]
          +0.044*[#  11]+0.044*[#  15]+0.016*[#   9]+0.016*[#  12]+0.016*[#  16]
          +0.007*[#   8]+0.007*[#   7]+0.002*[#   1]+0.001*[#   5]
    |psi|^2 = 0.995
==== e(   8) =    -5.83858 eV ==== 
     psi = 0.253*[#  13]+0.253*[#  17]+0.109*[#   6]+0.070*[#  14]+0.070*[#  18]
          +0.069*[#  12]+0.069*[#  16]+0.045*[#   5]+0.021*[#   7]+0.016*[#   8]
          +0.007*[#   9]+0.001*[#  11]+0.001*[#  15]
    |psi|^2 = 0.984
==== e(   9) =    -5.14099 eV ==== 
     psi = 0.211*[#  13]+0.211*[#  17]+0.109*[#  14]+0.109*[#  18]+0.098*[#   9]
          +0.077*[#  12]+0.077*[#  16]+0.030*[#  10]+0.020*[#   5]+0.018*[#   6]
          +0.009*[#   7]+0.007*[#  11]+0.007*[#  15]
    |psi|^2 = 0.982
==== e(  10) =    -4.92763 eV ==== 
     psi = 0.273*[#   5]+0.219*[#  12]+0.219*[#  16]+0.132*[#   6]+0.064*[#  13]
          +0.064*[#  17]+0.005*[#   7]+0.005*[#   9]+0.004*[#  10]+0.002*[#   8]
          
    |psi|^2 = 0.989
==== e(  11) =    -4.25408 eV ==== 
     psi = 0.213*[#  12]+0.213*[#  16]+0.176*[#   8]+0.116*[#   6]+0.089*[#   5]
          +0.058*[#  13]+0.058*[#  17]+0.044*[#   7]+0.007*[#  14]+0.007*[#  18]
          +0.001*[#  11]+0.001*[#  15]
    |psi|^2 = 0.982
==== e(  12) =    -3.64734 eV ==== 
     psi = 0.304*[#  14]+0.304*[#  18]+0.110*[#  13]+0.110*[#  17]+0.042*[#  12]
          +0.042*[#  16]+0.029*[#   6]+0.015*[#   8]+0.013*[#   7]+0.010*[#   5]
          +0.003*[#   9]
    |psi|^2 = 0.984
==== e(  13) =    -3.14146 eV ==== 
     psi = 0.573*[#   7]+0.308*[#   8]+0.056*[#   9]+0.016*[#   6]+0.011*[#  10]
          +0.007*[#   5]+0.006*[#  14]+0.006*[#  18]+0.002*[#  11]+0.002*[#  15]
          
    |psi|^2 = 0.986
==== e(  14) =    -2.78372 eV ==== 
     psi = 0.767*[#   9]+0.092*[#   7]+0.029*[#  14]+0.029*[#  18]+0.016*[#  12]
          +0.016*[#  13]+0.016*[#  16]+0.016*[#  17]+0.007*[#   5]+0.002*[#   6]
          +0.001*[#  10]
    |psi|^2 = 0.992
==== e(  15) =    -2.76575 eV ==== 
     psi = 0.433*[#   8]+0.221*[#   7]+0.071*[#  12]+0.071*[#  16]+0.045*[#   6]
          +0.030*[#   9]+0.029*[#  13]+0.029*[#  17]+0.028*[#  14]+0.028*[#  18]
          +0.003*[#   5]
    |psi|^2 = 0.987
==== e(  16) =    -1.90159 eV ==== 
     psi = 0.350*[#   5]+0.179*[#   6]+0.133*[#  12]+0.133*[#  16]+0.079*[#  13]
          +0.079*[#  17]+0.007*[#  14]+0.007*[#  18]+0.005*[#   8]+0.003*[#   9]
          +0.001*[#  11]+0.001*[#  15]+0.001*[#  10]
    |psi|^2 = 0.978
==== e(  17) =    -1.87097 eV ==== 
     psi = 0.334*[#   6]+0.179*[#   5]+0.096*[#  12]+0.096*[#  16]+0.087*[#  14]
          +0.087*[#  18]+0.036*[#  13]+0.036*[#  17]+0.021*[#   8]+0.007*[#  11]
          +0.007*[#  15]+0.005*[#   9]
    |psi|^2 = 0.992
==== e(  18) =     2.73188 eV ==== 
     psi = 0.394*[#  10]+0.048*[#  13]+0.048*[#  17]+0.031*[#  12]+0.031*[#  16]
          +0.027*[#  14]+0.027*[#  18]+0.020*[#  11]+0.020*[#  15]+0.003*[#   7]
          +0.002*[#   5]+0.002*[#   6]+0.001*[#   1]
    |psi|^2 = 0.655
==== e(  19) =     3.17794 eV ==== 
     psi = 0.002*[#   6]+0.001*[#  12]+0.001*[#  13]+0.001*[#  16]+0.002*[#  17]
          +0.001*[#   8]
    |psi|^2 = 0.011
==== e(  20) =     3.21083 eV ==== 
     psi = 0.074*[#  10]+0.006*[#  14]+0.006*[#  18]+0.004*[#  11]+0.004*[#  15]
          +0.004*[#  13]+0.004*[#  17]+0.001*[#  12]+0.001*[#  16]
    |psi|^2 = 0.108

 k =   0.1666500000  0.2886462671  0.0000000000
==== e(   1) =  -104.63550 eV ==== 
     psi = 0.995*[#   1]+0.001*[#  13]+0.001*[#  17]
    |psi|^2 = 1.000
==== e(   2) =   -65.02956 eV ==== 
     psi = 0.999*[#   2]
    |psi|^2 = 1.000
==== e(   3) =   -65.02847 eV ==== 
     psi = 0.749*[#   4]+0.250*[#   3]
    |psi|^2 = 1.000
==== e(   4) =   -65.02827 eV ==== 
     psi = 0.749*[#   3]+0.250*[#   4]
    |psi|^2 = 1.000
==== e(   5) =   -15.18929 eV ==== 
     psi = 0.419*[#  11]+0.419*[#  15]+0.133*[#  10]+0.007*[#  13]+0.007*[#  17]
          +0.005*[#  14]+0.005*[#  18]+0.002*[#  12]+0.002*[#  16]
    |psi|^2 = 0.999
==== e(   6) =   -14.55205 eV ==== 
     psi = 0.488*[#  11]+0.488*[#  15]+0.008*[#   6]+0.004*[#   5]+0.003*[#  13]
          +0.003*[#  17]
    |psi|^2 = 0.999
==== e(   7) =    -6.44100 eV ==== 
     psi = 0.231*[#  14]+0.231*[#  18]+0.160*[#  10]+0.099*[#  13]+0.099*[#  17]
          +0.045*[#  11]+0.045*[#  15]+0.027*[#  12]+0.027*[#  16]+0.009*[#   7]
          +0.008*[#   8]+0.006*[#   9]+0.003*[#   5]+0.002*[#   1]
    |psi|^2 = 0.995
==== e(   8) =    -5.96897 eV ==== 
     psi = 0.267*[#  13]+0.267*[#  17]+0.084*[#   6]+0.073*[#  12]+0.073*[#  16]
          +0.069*[#  14]+0.069*[#  18]+0.033*[#   5]+0.021*[#   7]+0.018*[#   8]
          +0.006*[#   9]+0.001*[#  11]+0.001*[#  15]
    |psi|^2 = 0.984
==== e(   9) =    -5.27924 eV ==== 
     psi = 0.173*[#  14]+0.173*[#  18]+0.165*[#  13]+0.165*[#  17]+0.097*[#   9]
          +0.077*[#  12]+0.077*[#  16]+0.020*[#  10]+0.014*[#   6]+0.012*[#   5]
          +0.004*[#   7]+0.003*[#  11]+0.003*[#  15]
    |psi|^2 = 0.981
==== e(  10) =    -4.97713 eV ==== 
     psi = 0.262*[#   5]+0.220*[#  12]+0.220*[#  16]+0.127*[#   6]+0.072*[#  13]
          +0.072*[#  17]+0.006*[#  10]+0.003*[#   8]+0.002*[#  14]+0.002*[#  18]
          +0.002*[#   9]+0.001*[#   7]
    |psi|^2 = 0.990
==== e(  11) =    -4.39088 eV ==== 
     psi = 0.221*[#  12]+0.221*[#  16]+0.150*[#   8]+0.127*[#   6]+0.093*[#   5]
          +0.058*[#  13]+0.058*[#  17]+0.034*[#   7]+0.008*[#  14]+0.008*[#  18]
          +0.001*[#  11]+0.001*[#  15]
    |psi|^2 = 0.983
==== e(  12) =    -3.75947 eV ==== 
     psi = 0.281*[#  14]+0.281*[#  18]+0.111*[#  13]+0.111*[#  17]+0.050*[#   6]
          +0.045*[#  12]+0.045*[#  16]+0.018*[#   5]+0.017*[#   8]+0.016*[#   7]
          +0.004*[#   9]+0.001*[#  11]+0.001*[#  15]
    |psi|^2 = 0.985
==== e(  13) =    -3.13227 eV ==== 
     psi = 0.586*[#   7]+0.303*[#   8]+0.046*[#   9]+0.022*[#   6]+0.010*[#  10]
          +0.007*[#  14]+0.007*[#  18]+0.002*[#   5]+0.001*[#  11]+0.001*[#  15]
          
    |psi|^2 = 0.987
==== e(  14) =    -2.81960 eV ==== 
     psi = 0.786*[#   9]+0.085*[#   7]+0.026*[#  14]+0.026*[#  18]+0.016*[#   5]
          +0.016*[#  12]+0.016*[#  16]+0.010*[#  13]+0.010*[#  17]+0.002*[#  10]
          
    |psi|^2 = 0.992
==== e(  15) =    -2.76832 eV ==== 
     psi = 0.452*[#   8]+0.227*[#   7]+0.062*[#  12]+0.062*[#  16]+0.040*[#   6]
          +0.032*[#  14]+0.032*[#  18]+0.030*[#   9]+0.024*[#  13]+0.024*[#  17]
          +0.002*[#   5]
    |psi|^2 = 0.987
==== e(  16) =    -1.98491 eV ==== 
     psi = 0.362*[#   5]+0.184*[#   6]+0.116*[#  12]+0.116*[#  16]+0.079*[#  13]
          +0.079*[#  17]+0.010*[#  14]+0.010*[#  18]+0.009*[#   9]+0.008*[#   8]
          +0.002*[#  10]+0.002*[#  11]+0.002*[#  15]
    |psi|^2 = 0.979
==== e(  17) =    -1.82529 eV ==== 
     psi = 0.332*[#   6]+0.179*[#   5]+0.106*[#  14]+0.106*[#  18]+0.087*[#  12]
          +0.087*[#  16]+0.026*[#  13]+0.026*[#  17]+0.024*[#   8]+0.007*[#  11]
          +0.007*[#  15]+0.005*[#   9]
    |psi|^2 = 0.993
==== e(  18) =     2.63023 eV ==== 
     psi = 0.407*[#  10]+0.051*[#  13]+0.051*[#  17]+0.036*[#  12]+0.036*[#  16]
          +0.024*[#  14]+0.024*[#  18]+0.017*[#  11]+0.017*[#  15]+0.003*[#   5]
          +0.002*[#   7]+0.002*[#   6]+0.002*[#   1]
    |psi|^2 = 0.672
==== e(  19) =     3.21376 eV ==== 
     psi = 0.002*[#  13]+0.002*[#  17]+0.002*[#  12]+0.002*[#  16]+0.002*[#   6]
          +0.001*[#   8]
    |psi|^2 = 0.012
==== e(  20) =     3.42601 eV ==== 
     psi = 0.081*[#  10]+0.006*[#  14]+0.006*[#  18]+0.005*[#  13]+0.005*[#  17]
          +0.004*[#  11]+0.004*[#  15]+0.001*[#  12]+0.001*[#  16]
    |psi|^2 = 0.115

 k =   0.1833150000  0.3175108938  0.0000000000
==== e(   1) =  -104.63550 eV ==== 
     psi = 0.995*[#   1]+0.001*[#  13]+0.001*[#  17]
    |psi|^2 = 1.000
==== e(   2) =   -65.02956 eV ==== 
     psi = 0.999*[#   2]
    |psi|^2 = 1.000
==== e(   3) =   -65.02851 eV ==== 
     psi = 0.749*[#   4]+0.250*[#   3]
    |psi|^2 = 1.000
==== e(   4) =   -65.02829 eV ==== 
     psi = 0.749*[#   3]+0.250*[#   4]
    |psi|^2 = 1.000
==== e(   5) =   -15.09238 eV ==== 
     psi = 0.429*[#  11]+0.429*[#  15]+0.112*[#  10]+0.007*[#  13]+0.007*[#  17]
          +0.004*[#  14]+0.004*[#  18]+0.002*[#  12]+0.002*[#  16]+0.001*[#   5]
          
    |psi|^2 = 0.999
==== e(   6) =   -14.51478 eV ==== 
     psi = 0.488*[#  11]+0.488*[#  15]+0.009*[#   6]+0.005*[#   5]+0.003*[#  13]
          +0.003*[#  17]
    |psi|^2 = 0.999
==== e(   7) =    -6.51235 eV ==== 
     psi = 0.178*[#  10]+0.165*[#  14]+0.165*[#  18]+0.146*[#  13]+0.146*[#  17]
          +0.043*[#  11]+0.043*[#  15]+0.041*[#  12]+0.041*[#  16]+0.011*[#   7]
          +0.007*[#   8]+0.005*[#   5]+0.002*[#   1]+0.001*[#   9]
    |psi|^2 = 0.995
==== e(   8) =    -6.08534 eV ==== 
     psi = 0.279*[#  13]+0.279*[#  17]+0.078*[#  12]+0.078*[#  16]+0.068*[#  14]
          +0.068*[#  18]+0.062*[#   6]+0.023*[#   5]+0.021*[#   8]+0.020*[#   7]
          +0.005*[#   9]
    |psi|^2 = 0.983
==== e(   9) =    -5.35305 eV ==== 
     psi = 0.232*[#  14]+0.232*[#  18]+0.112*[#  13]+0.112*[#  17]+0.090*[#   9]
          +0.087*[#  12]+0.087*[#  16]+0.012*[#  10]+0.008*[#   6]+0.003*[#   5]
          +0.001*[#   8]
    |psi|^2 = 0.979
==== e(  10) =    -5.03277 eV ==== 
     psi = 0.251*[#   5]+0.208*[#  12]+0.208*[#  16]+0.123*[#   6]+0.081*[#  13]
          +0.081*[#  17]+0.012*[#  14]+0.012*[#  18]+0.009*[#  10]+0.004*[#   8]
          
    |psi|^2 = 0.992
==== e(  11) =    -4.52056 eV ==== 
     psi = 0.231*[#  12]+0.231*[#  16]+0.132*[#   6]+0.129*[#   8]+0.093*[#   5]
          +0.060*[#  13]+0.060*[#  17]+0.027*[#   7]+0.008*[#  14]+0.008*[#  18]
          +0.001*[#  11]+0.001*[#  15]
    |psi|^2 = 0.983
==== e(  12) =    -3.88401 eV ==== 
     psi = 0.266*[#  14]+0.266*[#  18]+0.108*[#  13]+0.108*[#  17]+0.073*[#   6]
          +0.046*[#  12]+0.046*[#  16]+0.029*[#   5]+0.017*[#   7]+0.015*[#   8]
          +0.005*[#   9]+0.002*[#  11]+0.002*[#  15]
    |psi|^2 = 0.986
==== e(  13) =    -3.11947 eV ==== 
     psi = 0.596*[#   7]+0.297*[#   8]+0.036*[#   9]+0.029*[#   6]+0.009*[#  10]
          +0.009*[#  14]+0.009*[#  18]
    |psi|^2 = 0.987
==== e(  14) =    -2.86285 eV ==== 
     psi = 0.801*[#   9]+0.074*[#   7]+0.028*[#   5]+0.021*[#  14]+0.021*[#  18]
          +0.015*[#  12]+0.015*[#  16]+0.006*[#  13]+0.006*[#  17]+0.003*[#  10]
          
    |psi|^2 = 0.992
==== e(  15) =    -2.77212 eV ==== 
     psi = 0.471*[#   8]+0.234*[#   7]+0.055*[#  12]+0.055*[#  16]+0.034*[#   6]
          +0.033*[#  14]+0.033*[#  18]+0.030*[#   9]+0.020*[#  13]+0.020*[#  17]
          
    |psi|^2 = 0.987
==== e(  16) =    -2.05076 eV ==== 
     psi = 0.369*[#   5]+0.186*[#   6]+0.100*[#  12]+0.100*[#  16]+0.077*[#  13]
          +0.077*[#  17]+0.017*[#   9]+0.015*[#  14]+0.015*[#  18]+0.012*[#   8]
          +0.005*[#   7]+0.003*[#  10]+0.002*[#  11]+0.002*[#  15]
    |psi|^2 = 0.980
==== e(  17) =    -1.77865 eV ==== 
     psi = 0.331*[#   6]+0.179*[#   5]+0.122*[#  14]+0.122*[#  18]+0.079*[#  12]
          +0.079*[#  16]+0.025*[#   8]+0.020*[#  13]+0.020*[#  17]+0.007*[#  11]
          +0.007*[#  15]+0.005*[#   9]
    |psi|^2 = 0.994
==== e(  18) =     2.53622 eV ==== 
     psi = 0.433*[#  10]+0.054*[#  13]+0.054*[#  17]+0.040*[#  12]+0.040*[#  16]
          +0.022*[#  14]+0.022*[#  18]+0.014*[#  11]+0.014*[#  15]+0.003*[#   5]
          +0.002*[#   6]+0.002*[#   7]+0.002*[#   1]
    |psi|^2 = 0.703
==== e(  19) =     3.23628 eV ==== 
     psi = 0.002*[#  13]+0.002*[#  17]+0.002*[#  12]+0.002*[#  16]+0.001*[#   8]
          +0.001*[#   6]
    |psi|^2 = 0.013
==== e(  20) =     3.65723 eV ==== 
     psi = 0.079*[#  10]+0.006*[#  14]+0.006*[#  18]+0.005*[#  13]+0.005*[#  17]
          +0.003*[#  11]+0.003*[#  15]+0.001*[#  12]+0.001*[#  16]
    |psi|^2 = 0.110

 k =   0.1999800000  0.3463755205  0.0000000000
==== e(   1) =  -104.63550 eV ==== 
     psi = 0.995*[#   1]+0.001*[#  13]+0.001*[#  17]
    |psi|^2 = 1.000
==== e(   2) =   -65.02955 eV ==== 
     psi = 0.999*[#   2]
    |psi|^2 = 1.000
==== e(   3) =   -65.02854 eV ==== 
     psi = 0.749*[#   4]+0.250*[#   3]
    |psi|^2 = 1.000
==== e(   4) =   -65.02832 eV ==== 
     psi = 0.749*[#   3]+0.250*[#   4]
    |psi|^2 = 1.000
==== e(   5) =   -14.99515 eV ==== 
     psi = 0.439*[#  11]+0.439*[#  15]+0.091*[#  10]+0.007*[#  13]+0.007*[#  17]
          +0.004*[#  14]+0.004*[#  18]+0.002*[#  12]+0.002*[#  16]+0.002*[#   5]
          
    |psi|^2 = 0.999
==== e(   6) =   -14.48157 eV ==== 
     psi = 0.488*[#  11]+0.488*[#  15]+0.010*[#   6]+0.005*[#   5]+0.002*[#  13]
          +0.002*[#  17]
    |psi|^2 = 0.999
==== e(   7) =    -6.61663 eV ==== 
     psi = 0.192*[#  10]+0.184*[#  13]+0.184*[#  17]+0.111*[#  14]+0.111*[#  18]
          +0.054*[#  12]+0.054*[#  16]+0.039*[#  11]+0.039*[#  15]+0.011*[#   7]
          +0.007*[#   5]+0.006*[#   8]+0.002*[#   1]+0.002*[#   6]
    |psi|^2 = 0.995
==== e(   8) =    -6.18353 eV ==== 
     psi = 0.288*[#  13]+0.288*[#  17]+0.083*[#  12]+0.083*[#  16]+0.066*[#  14]
          +0.066*[#  18]+0.043*[#   6]+0.024*[#   8]+0.020*[#   7]+0.015*[#   5]
          +0.005*[#   9]
    |psi|^2 = 0.983
==== e(   9) =    -5.39388 eV ==== 
     psi = 0.248*[#  14]+0.248*[#  18]+0.125*[#  12]+0.125*[#  16]+0.072*[#   9]
          +0.070*[#  13]+0.070*[#  17]+0.011*[#  10]+0.005*[#   8]
    |psi|^2 = 0.977
==== e(  10) =    -5.07644 eV ==== 
     psi = 0.235*[#   5]+0.168*[#  12]+0.168*[#  16]+0.121*[#   6]+0.088*[#  13]
          +0.088*[#  17]+0.053*[#  14]+0.053*[#  18]+0.010*[#  10]+0.005*[#   9]
          +0.004*[#   8]
    |psi|^2 = 0.995
==== e(  11) =    -4.64305 eV ==== 
     psi = 0.244*[#  12]+0.244*[#  16]+0.130*[#   6]+0.110*[#   8]+0.090*[#   5]
          +0.064*[#  13]+0.064*[#  17]+0.022*[#   7]+0.007*[#  14]+0.007*[#  18]
          
    |psi|^2 = 0.983
==== e(  12) =    -4.01307 eV ==== 
     psi = 0.258*[#  14]+0.258*[#  18]+0.103*[#  13]+0.103*[#  17]+0.097*[#   6]
          +0.044*[#  12]+0.044*[#  16]+0.041*[#   5]+0.017*[#   7]+0.011*[#   8]
          +0.006*[#   9]+0.003*[#  11]+0.003*[#  15]
    |psi|^2 = 0.987
==== e(  13) =    -3.10244 eV ==== 
     psi = 0.602*[#   7]+0.290*[#   8]+0.036*[#   6]+0.028*[#   9]+0.011*[#  14]
          +0.011*[#  18]+0.008*[#  10]
    |psi|^2 = 0.988
==== e(  14) =    -2.90991 eV ==== 
     psi = 0.814*[#   9]+0.063*[#   7]+0.040*[#   5]+0.016*[#  14]+0.016*[#  18]
          +0.013*[#  12]+0.013*[#  16]+0.005*[#  10]+0.004*[#  13]+0.004*[#  17]
          +0.002*[#   8]
    |psi|^2 = 0.991
==== e(  15) =    -2.77854 eV ==== 
     psi = 0.491*[#   8]+0.240*[#   7]+0.049*[#  12]+0.049*[#  16]+0.032*[#  14]
          +0.032*[#  18]+0.030*[#   9]+0.029*[#   6]+0.018*[#  13]+0.018*[#  17]
          
    |psi|^2 = 0.988
==== e(  16) =    -2.09803 eV ==== 
     psi = 0.372*[#   5]+0.187*[#   6]+0.086*[#  12]+0.086*[#  16]+0.075*[#  13]
          +0.075*[#  17]+0.025*[#   9]+0.020*[#  14]+0.020*[#  18]+0.016*[#   8]
          +0.011*[#   7]+0.003*[#  10]+0.002*[#  11]+0.002*[#  15]
    |psi|^2 = 0.982
==== e(  17) =    -1.73992 eV ==== 
     psi = 0.331*[#   6]+0.179*[#   5]+0.133*[#  14]+0.133*[#  18]+0.071*[#  12]
          +0.071*[#  16]+0.025*[#   8]+0.016*[#  13]+0.016*[#  17]+0.007*[#  11]
          +0.007*[#  15]+0.005*[#   9]
    |psi|^2 = 0.995
==== e(  18) =     2.44858 eV ==== 
     psi = 0.460*[#  10]+0.057*[#  13]+0.057*[#  17]+0.045*[#  12]+0.045*[#  16]
          +0.020*[#  14]+0.020*[#  18]+0.012*[#  11]+0.012*[#  15]+0.003*[#   5]
          +0.002*[#   1]+0.002*[#   6]+0.002*[#   7]
    |psi|^2 = 0.735
==== e(  19) =     3.25645 eV ==== 
     psi = 0.003*[#  13]+0.003*[#  17]+0.002*[#  12]+0.002*[#  16]+0.001*[#   8]
          
    |psi|^2 = 0.013
==== e(  20) =     3.90332 eV ==== 
     psi = 0.075*[#  10]+0.005*[#  13]+0.005*[#  14]+0.005*[#  17]+0.005*[#  18]
          +0.002*[#  11]+0.002*[#  15]+0.001*[#  12]+0.001*[#  16]
    |psi|^2 = 0.102

 k =   0.2166450000  0.3752401472  0.0000000000
==== e(   1) =  -104.63549 eV ==== 
     psi = 0.995*[#   1]+0.001*[#  13]+0.001*[#  17]
    |psi|^2 = 1.000
==== e(   2) =   -65.02954 eV ==== 
     psi = 0.999*[#   2]
    |psi|^2 = 1.000
==== e(   3) =   -65.02857 eV ==== 
     psi = 0.749*[#   4]+0.250*[#   3]
    |psi|^2 = 1.000
==== e(   4) =   -65.02834 eV ==== 
     psi = 0.749*[#   3]+0.250*[#   4]
    |psi|^2 = 1.000
==== e(   5) =   -14.89998 eV ==== 
     psi = 0.449*[#  11]+0.449*[#  15]+0.071*[#  10]+0.007*[#  13]+0.007*[#  17]
          +0.004*[#  14]+0.004*[#  18]+0.002*[#   5]+0.002*[#  12]+0.002*[#  16]
          +0.001*[#   6]
    |psi|^2 = 0.999
==== e(   6) =   -14.45385 eV ==== 
     psi = 0.489*[#  11]+0.489*[#  15]+0.011*[#   6]+0.006*[#   5]+0.001*[#  13]
          +0.001*[#  17]
    |psi|^2 = 0.999
==== e(   7) =    -6.73025 eV ==== 
     psi = 0.211*[#  13]+0.211*[#  17]+0.203*[#  10]+0.075*[#  14]+0.075*[#  18]
          +0.063*[#  12]+0.063*[#  16]+0.032*[#  11]+0.032*[#  15]+0.010*[#   7]
          +0.008*[#   5]+0.005*[#   8]+0.002*[#   6]+0.002*[#   1]+0.001*[#   9]
          
    |psi|^2 = 0.995
==== e(   8) =    -6.26015 eV ==== 
     psi = 0.294*[#  13]+0.294*[#  17]+0.087*[#  12]+0.087*[#  16]+0.066*[#  14]
          +0.066*[#  18]+0.028*[#   8]+0.028*[#   6]+0.020*[#   7]+0.008*[#   5]
          +0.004*[#   9]
    |psi|^2 = 0.982
==== e(   9) =    -5.45343 eV ==== 
     psi = 0.201*[#  14]+0.201*[#  18]+0.187*[#  12]+0.187*[#  16]+0.053*[#  13]
          +0.053*[#  17]+0.046*[#   9]+0.016*[#   5]+0.015*[#  10]+0.010*[#   8]
          +0.003*[#   7]+0.002*[#   6]
    |psi|^2 = 0.976
==== e(  10) =    -5.07830 eV ==== 
     psi = 0.206*[#   5]+0.137*[#  14]+0.137*[#  18]+0.114*[#   6]+0.106*[#  12]
          +0.106*[#  16]+0.082*[#  13]+0.082*[#  17]+0.016*[#   9]+0.009*[#  10]
          +0.002*[#   8]+0.001*[#  11]+0.001*[#  15]
    |psi|^2 = 0.996
==== e(  11) =    -4.75917 eV ==== 
     psi = 0.257*[#  12]+0.257*[#  16]+0.121*[#   6]+0.094*[#   8]+0.082*[#   5]
          +0.071*[#  13]+0.071*[#  17]+0.018*[#   7]+0.006*[#  14]+0.006*[#  18]
          
    |psi|^2 = 0.983
==== e(  12) =    -4.14038 eV ==== 
     psi = 0.255*[#  14]+0.255*[#  18]+0.124*[#   6]+0.094*[#  13]+0.094*[#  17]
          +0.054*[#   5]+0.039*[#  12]+0.039*[#  16]+0.015*[#   7]+0.007*[#   8]
          +0.006*[#   9]+0.003*[#  11]+0.003*[#  15]
    |psi|^2 = 0.989
==== e(  13) =    -3.08093 eV ==== 
     psi = 0.599*[#   7]+0.284*[#   8]+0.042*[#   6]+0.026*[#   9]+0.014*[#  14]
          +0.014*[#  18]+0.006*[#  10]+0.002*[#   5]
    |psi|^2 = 0.988
==== e(  14) =    -2.95633 eV ==== 
     psi = 0.825*[#   9]+0.059*[#   7]+0.050*[#   5]+0.010*[#  14]+0.010*[#  18]
          +0.010*[#  12]+0.010*[#  16]+0.007*[#  10]+0.004*[#   8]+0.003*[#  13]
          +0.003*[#  17]+0.002*[#   6]
    |psi|^2 = 0.991
==== e(  15) =    -2.78769 eV ==== 
     psi = 0.510*[#   8]+0.247*[#   7]+0.042*[#  12]+0.042*[#  16]+0.031*[#   9]
          +0.029*[#  14]+0.029*[#  18]+0.026*[#   6]+0.016*[#  13]+0.016*[#  17]
          
    |psi|^2 = 0.988
==== e(  16) =    -2.12802 eV ==== 
     psi = 0.374*[#   5]+0.186*[#   6]+0.076*[#  12]+0.076*[#  16]+0.072*[#  13]
          +0.072*[#  17]+0.031*[#   9]+0.027*[#  14]+0.027*[#  18]+0.019*[#   8]
          +0.017*[#   7]+0.003*[#  10]+0.002*[#  11]+0.002*[#  15]
    |psi|^2 = 0.983
==== e(  17) =    -1.71580 eV ==== 
     psi = 0.333*[#   6]+0.180*[#   5]+0.141*[#  14]+0.141*[#  18]+0.064*[#  12]
          +0.064*[#  16]+0.025*[#   8]+0.015*[#  13]+0.015*[#  17]+0.006*[#  11]
          +0.006*[#  15]+0.005*[#   9]
    |psi|^2 = 0.995
==== e(  18) =     2.36630 eV ==== 
     psi = 0.484*[#  10]+0.059*[#  13]+0.059*[#  17]+0.048*[#  12]+0.048*[#  16]
          +0.017*[#  14]+0.017*[#  18]+0.009*[#  11]+0.009*[#  15]+0.003*[#   5]
          +0.002*[#   1]+0.001*[#   6]+0.001*[#   7]+0.001*[#   9]
    |psi|^2 = 0.761
==== e(  19) =     3.28829 eV ==== 
     psi = 0.003*[#  13]+0.003*[#  17]+0.002*[#  12]+0.002*[#  16]+0.001*[#   8]
          
    |psi|^2 = 0.013
==== e(  20) =     4.16281 eV ==== 
     psi = 0.071*[#  10]+0.004*[#  13]+0.004*[#  17]+0.004*[#  14]+0.004*[#  18]
          +0.002*[#  11]+0.002*[#  15]+0.002*[#  12]+0.002*[#  16]
    |psi|^2 = 0.096

 k =   0.2333100000  0.4041047739  0.0000000000
==== e(   1) =  -104.63549 eV ==== 
     psi = 0.995*[#   1]+0.001*[#  13]+0.001*[#  17]
    |psi|^2 = 1.000
==== e(   2) =   -65.02953 eV ==== 
     psi = 0.999*[#   2]
    |psi|^2 = 1.000
==== e(   3) =   -65.02859 eV ==== 
     psi = 0.749*[#   4]+0.250*[#   3]
    |psi|^2 = 1.000
==== e(   4) =   -65.02837 eV ==== 
     psi = 0.749*[#   3]+0.250*[#   4]
    |psi|^2 = 1.000
==== e(   5) =   -14.80932 eV ==== 
     psi = 0.459*[#  11]+0.459*[#  15]+0.053*[#  10]+0.006*[#  13]+0.006*[#  17]
          +0.004*[#  14]+0.004*[#  18]+0.003*[#   5]+0.002*[#  12]+0.002*[#  16]
          +0.001*[#   6]
    |psi|^2 = 0.999
==== e(   6) =   -14.43279 eV ==== 
     psi = 0.489*[#  11]+0.489*[#  15]+0.011*[#   6]+0.006*[#   5]
    |psi|^2 = 0.999
==== e(   7) =    -6.83364 eV ==== 
     psi = 0.228*[#  13]+0.228*[#  17]+0.213*[#  10]+0.071*[#  12]+0.071*[#  16]
          +0.052*[#  14]+0.052*[#  18]+0.025*[#  11]+0.025*[#  15]+0.010*[#   7]
          +0.008*[#   5]+0.004*[#   8]+0.003*[#   6]+0.002*[#   9]+0.002*[#   1]
          
    |psi|^2 = 0.995
==== e(   8) =    -6.31292 eV ==== 
     psi = 0.296*[#  13]+0.296*[#  17]+0.092*[#  12]+0.092*[#  16]+0.065*[#  14]
          +0.065*[#  18]+0.032*[#   8]+0.020*[#   7]+0.016*[#   6]+0.004*[#   5]
          +0.003*[#   9]
    |psi|^2 = 0.982
==== e(   9) =    -5.55408 eV ==== 
     psi = 0.230*[#  12]+0.230*[#  16]+0.149*[#  14]+0.149*[#  18]+0.056*[#  13]
          +0.056*[#  17]+0.032*[#   5]+0.025*[#   9]+0.020*[#  10]+0.014*[#   8]
          +0.008*[#   7]+0.006*[#   6]
    |psi|^2 = 0.977
==== e(  10) =    -5.03305 eV ==== 
     psi = 0.211*[#  14]+0.211*[#  18]+0.182*[#   5]+0.105*[#   6]+0.065*[#  13]
          +0.065*[#  17]+0.062*[#  12]+0.062*[#  16]+0.021*[#   9]+0.008*[#  10]
          +0.002*[#  11]+0.002*[#  15]
    |psi|^2 = 0.996
==== e(  11) =    -4.87003 eV ==== 
     psi = 0.272*[#  12]+0.272*[#  16]+0.104*[#   6]+0.082*[#  13]+0.082*[#  17]
          +0.077*[#   8]+0.070*[#   5]+0.014*[#   7]+0.003*[#  14]+0.003*[#  18]
          
    |psi|^2 = 0.982
==== e(  12) =    -4.26071 eV ==== 
     psi = 0.255*[#  14]+0.255*[#  18]+0.152*[#   6]+0.084*[#  13]+0.084*[#  17]
          +0.069*[#   5]+0.031*[#  12]+0.031*[#  16]+0.012*[#   7]+0.006*[#   9]
          +0.004*[#  11]+0.004*[#  15]+0.003*[#   8]
    |psi|^2 = 0.990
==== e(  13) =    -3.05601 eV ==== 
     psi = 0.559*[#   7]+0.283*[#   8]+0.056*[#   9]+0.043*[#   6]+0.019*[#  14]
          +0.019*[#  18]+0.003*[#  10]+0.002*[#  12]+0.002*[#  16]+0.001*[#   5]
          
    |psi|^2 = 0.988
==== e(  14) =    -2.99742 eV ==== 
     psi = 0.807*[#   9]+0.091*[#   7]+0.055*[#   5]+0.010*[#  10]+0.007*[#  12]
          +0.007*[#  16]+0.004*[#  14]+0.004*[#  18]+0.004*[#   6]+0.002*[#  13]
          +0.002*[#  17]
    |psi|^2 = 0.992
==== e(  15) =    -2.79899 eV ==== 
     psi = 0.527*[#   8]+0.253*[#   7]+0.036*[#  12]+0.036*[#  16]+0.031*[#   9]
          +0.027*[#  14]+0.027*[#  18]+0.024*[#   6]+0.014*[#  13]+0.014*[#  17]
          
    |psi|^2 = 0.989
==== e(  16) =    -2.14293 eV ==== 
     psi = 0.377*[#   5]+0.186*[#   6]+0.068*[#  13]+0.068*[#  17]+0.067*[#  12]
          +0.067*[#  16]+0.034*[#  14]+0.034*[#  18]+0.032*[#   9]+0.022*[#   8]
          +0.021*[#   7]+0.003*[#  10]+0.003*[#  11]+0.003*[#  15]
    |psi|^2 = 0.984
==== e(  17) =    -1.71053 eV ==== 
     psi = 0.335*[#   6]+0.181*[#   5]+0.146*[#  14]+0.146*[#  18]+0.059*[#  12]
          +0.059*[#  16]+0.025*[#   8]+0.014*[#  13]+0.014*[#  17]+0.006*[#  11]
          +0.006*[#  15]+0.005*[#   9]
    |psi|^2 = 0.994
==== e(  18) =     2.28995 eV ==== 
     psi = 0.503*[#  10]+0.061*[#  13]+0.061*[#  17]+0.052*[#  12]+0.052*[#  16]
          +0.014*[#  14]+0.014*[#  18]+0.007*[#  11]+0.007*[#  15]+0.003*[#   5]
          +0.002*[#   1]+0.002*[#   9]+0.001*[#   6]
    |psi|^2 = 0.780
==== e(  19) =     3.34436 eV ==== 
     psi = 0.003*[#  13]+0.003*[#  17]+0.001*[#   8]+0.001*[#  12]+0.001*[#  16]
          +0.001*[#  14]+0.001*[#  18]
    |psi|^2 = 0.013
==== e(  20) =     4.43111 eV ==== 
     psi = 0.068*[#  10]+0.004*[#  13]+0.004*[#  17]+0.004*[#  14]+0.004*[#  18]
          +0.002*[#  12]+0.002*[#  16]+0.001*[#  11]+0.001*[#  15]
    |psi|^2 = 0.091

 k =   0.2499750000  0.4329694006  0.0000000000
==== e(   1) =  -104.63549 eV ==== 
     psi = 0.995*[#   1]+0.001*[#  13]+0.001*[#  17]
    |psi|^2 = 1.000
==== e(   2) =   -65.02953 eV ==== 
     psi = 0.999*[#   2]
    |psi|^2 = 1.000
==== e(   3) =   -65.02860 eV ==== 
     psi = 0.749*[#   4]+0.250*[#   3]
    |psi|^2 = 1.000
==== e(   4) =   -65.02840 eV ==== 
     psi = 0.749*[#   3]+0.250*[#   4]
    |psi|^2 = 1.000
==== e(   5) =   -14.72552 eV ==== 
     psi = 0.468*[#  11]+0.468*[#  15]+0.037*[#  10]+0.005*[#  13]+0.005*[#  17]
          +0.004*[#   5]+0.003*[#  14]+0.003*[#  18]+0.002*[#   6]+0.002*[#  12]
          +0.002*[#  16]
    |psi|^2 = 0.999
==== e(   6) =   -14.41923 eV ==== 
     psi = 0.490*[#  11]+0.490*[#  15]+0.011*[#   6]+0.006*[#   5]
    |psi|^2 = 0.999
==== e(   7) =    -6.91439 eV ==== 
     psi = 0.238*[#  13]+0.238*[#  17]+0.223*[#  10]+0.078*[#  12]+0.078*[#  16]
          +0.037*[#  14]+0.037*[#  18]+0.019*[#  11]+0.019*[#  15]+0.008*[#   7]
          +0.007*[#   5]+0.004*[#   9]+0.004*[#   8]+0.003*[#   6]+0.002*[#   1]
          
    |psi|^2 = 0.996
==== e(   8) =    -6.34107 eV ==== 
     psi = 0.294*[#  13]+0.294*[#  17]+0.097*[#  12]+0.097*[#  16]+0.066*[#  14]
          +0.066*[#  18]+0.036*[#   8]+0.020*[#   7]+0.007*[#   6]+0.003*[#   9]
          
    |psi|^2 = 0.982
==== e(   9) =    -5.68293 eV ==== 
     psi = 0.249*[#  12]+0.249*[#  16]+0.119*[#  14]+0.119*[#  18]+0.064*[#  13]
          +0.064*[#  17]+0.037*[#   5]+0.025*[#  10]+0.016*[#   8]+0.014*[#   7]
          +0.013*[#   9]+0.008*[#   6]
    |psi|^2 = 0.979
==== e(  10) =    -4.97636 eV ==== 
     psi = 0.286*[#  12]+0.286*[#  16]+0.098*[#  13]+0.098*[#  17]+0.083*[#   6]
          +0.061*[#   8]+0.056*[#   5]+0.011*[#   7]+0.001*[#  14]+0.001*[#  18]
          
    |psi|^2 = 0.981
==== e(  11) =    -4.96307 eV ==== 
     psi = 0.253*[#  14]+0.253*[#  18]+0.175*[#   5]+0.102*[#   6]+0.050*[#  13]
          +0.050*[#  17]+0.041*[#  12]+0.041*[#  16]+0.018*[#   9]+0.006*[#  10]
          +0.002*[#  11]+0.002*[#  15]
    |psi|^2 = 0.995
==== e(  12) =    -4.36971 eV ==== 
     psi = 0.257*[#  14]+0.257*[#  18]+0.179*[#   6]+0.084*[#   5]+0.072*[#  13]
          +0.072*[#  17]+0.023*[#  12]+0.023*[#  16]+0.009*[#   7]+0.007*[#   9]
          +0.004*[#  11]+0.004*[#  15]
    |psi|^2 = 0.992
==== e(  13) =    -3.04512 eV ==== 
     psi = 0.629*[#   9]+0.162*[#   8]+0.115*[#   7]+0.017*[#  14]+0.017*[#  18]
          +0.016*[#   5]+0.014*[#   6]+0.006*[#  12]+0.006*[#  16]+0.002*[#  10]
          +0.001*[#  13]+0.001*[#  17]
    |psi|^2 = 0.987
==== e(  14) =    -3.01404 eV ==== 
     psi = 0.530*[#   7]+0.250*[#   9]+0.119*[#   8]+0.038*[#   5]+0.034*[#   6]
          +0.011*[#  10]+0.006*[#  14]+0.006*[#  18]
    |psi|^2 = 0.994
==== e(  15) =    -2.81164 eV ==== 
     psi = 0.541*[#   8]+0.259*[#   7]+0.031*[#   9]+0.030*[#  12]+0.030*[#  16]
          +0.024*[#  14]+0.024*[#  18]+0.023*[#   6]+0.013*[#  13]+0.013*[#  17]
          
    |psi|^2 = 0.990
==== e(  16) =    -2.14467 eV ==== 
     psi = 0.381*[#   5]+0.186*[#   6]+0.065*[#  13]+0.065*[#  17]+0.061*[#  12]
          +0.061*[#  16]+0.042*[#  14]+0.042*[#  18]+0.028*[#   9]+0.023*[#   8]
          +0.022*[#   7]+0.003*[#  10]+0.003*[#  11]+0.003*[#  15]
    |psi|^2 = 0.984
==== e(  17) =    -1.72562 eV ==== 
     psi = 0.338*[#   6]+0.182*[#   5]+0.146*[#  14]+0.146*[#  18]+0.054*[#  12]
          +0.054*[#  16]+0.025*[#   8]+0.015*[#  13]+0.015*[#  17]+0.006*[#  11]
          +0.006*[#  15]+0.005*[#   9]
    |psi|^2 = 0.992
==== e(  18) =     2.22167 eV ==== 
     psi = 0.517*[#  10]+0.062*[#  13]+0.062*[#  17]+0.054*[#  12]+0.054*[#  16]
          +0.011*[#  14]+0.011*[#  18]+0.005*[#  11]+0.005*[#  15]+0.004*[#   9]
          +0.003*[#   1]+0.002*[#   5]
    |psi|^2 = 0.791
==== e(  19) =     3.43299 eV ==== 
     psi = 0.002*[#  13]+0.002*[#  17]+0.002*[#  14]+0.002*[#  18]+0.001*[#   8]
          +0.001*[#  12]+0.001*[#  16]
    |psi|^2 = 0.014
==== e(  20) =     4.68816 eV ==== 
     psi = 0.062*[#  10]+0.005*[#  14]+0.005*[#  18]+0.004*[#  13]+0.004*[#  17]
          +0.001*[#  12]+0.001*[#  16]+0.001*[#  11]+0.001*[#  15]
    |psi|^2 = 0.085

 k =   0.2666400000  0.4618340273  0.0000000000
==== e(   1) =  -104.63549 eV ==== 
     psi = 0.995*[#   1]+0.001*[#  13]+0.001*[#  17]
    |psi|^2 = 1.000
==== e(   2) =   -65.02952 eV ==== 
     psi = 0.999*[#   2]
    |psi|^2 = 1.000
==== e(   3) =   -65.02860 eV ==== 
     psi = 0.749*[#   4]+0.250*[#   3]
    |psi|^2 = 1.000
==== e(   4) =   -65.02843 eV ==== 
     psi = 0.749*[#   3]+0.250*[#   4]
    |psi|^2 = 1.000
==== e(   5) =   -14.65062 eV ==== 
     psi = 0.475*[#  11]+0.475*[#  15]+0.023*[#  10]+0.004*[#   5]+0.004*[#  13]
          +0.004*[#  17]+0.003*[#  14]+0.003*[#  18]+0.002*[#   6]+0.002*[#  12]
          +0.002*[#  16]
    |psi|^2 = 0.999
==== e(   6) =   -14.41359 eV ==== 
     psi = 0.490*[#  11]+0.490*[#  15]+0.011*[#   6]+0.006*[#   5]
    |psi|^2 = 0.999
==== e(   7) =    -6.96583 eV ==== 
     psi = 0.243*[#  13]+0.243*[#  17]+0.234*[#  10]+0.086*[#  12]+0.086*[#  16]
          +0.026*[#  14]+0.026*[#  18]+0.013*[#  11]+0.013*[#  15]+0.007*[#   7]
          +0.006*[#   5]+0.005*[#   9]+0.003*[#   6]+0.003*[#   8]+0.002*[#   1]
          
    |psi|^2 = 0.996
==== e(   8) =    -6.34574 eV ==== 
     psi = 0.287*[#  13]+0.287*[#  17]+0.104*[#  12]+0.104*[#  16]+0.068*[#  14]
          +0.068*[#  18]+0.041*[#   8]+0.020*[#   7]+0.002*[#   9]+0.002*[#   6]
          
    |psi|^2 = 0.982
==== e(   9) =    -5.82472 eV ==== 
     psi = 0.255*[#  12]+0.255*[#  16]+0.104*[#  14]+0.104*[#  18]+0.073*[#  13]
          +0.073*[#  17]+0.035*[#   5]+0.027*[#  10]+0.020*[#   7]+0.018*[#   8]
          +0.008*[#   6]+0.006*[#   9]+0.001*[#  11]+0.001*[#  15]
    |psi|^2 = 0.981
==== e(  10) =    -5.07744 eV ==== 
     psi = 0.296*[#  12]+0.296*[#  16]+0.118*[#  13]+0.118*[#  17]+0.059*[#   6]
          +0.044*[#   8]+0.040*[#   5]+0.008*[#   7]
    |psi|^2 = 0.980
==== e(  11) =    -4.88725 eV ==== 
     psi = 0.274*[#  14]+0.274*[#  18]+0.180*[#   5]+0.103*[#   6]+0.039*[#  13]
          +0.039*[#  17]+0.030*[#  12]+0.030*[#  16]+0.012*[#   9]+0.004*[#  10]
          +0.003*[#  11]+0.003*[#  15]+0.002*[#   7]
    |psi|^2 = 0.995
==== e(  12) =    -4.46416 eV ==== 
     psi = 0.260*[#  14]+0.260*[#  18]+0.204*[#   6]+0.099*[#   5]+0.059*[#  13]
          +0.059*[#  17]+0.016*[#  12]+0.016*[#  16]+0.007*[#   7]+0.006*[#   9]
          +0.004*[#  11]+0.004*[#  15]
    |psi|^2 = 0.994
==== e(  13) =    -3.06831 eV ==== 
     psi = 0.843*[#   9]+0.075*[#   8]+0.026*[#   5]+0.009*[#   7]+0.007*[#  10]
          +0.006*[#  14]+0.006*[#  18]+0.005*[#   6]+0.004*[#  12]+0.004*[#  16]
          
    |psi|^2 = 0.988
==== e(  14) =    -2.98646 eV ==== 
     psi = 0.632*[#   7]+0.203*[#   8]+0.055*[#   9]+0.042*[#   6]+0.019*[#   5]
          +0.017*[#  14]+0.017*[#  18]+0.005*[#  10]
    |psi|^2 = 0.993
==== e(  15) =    -2.82491 eV ==== 
     psi = 0.552*[#   8]+0.265*[#   7]+0.032*[#   9]+0.025*[#  12]+0.025*[#  16]
          +0.023*[#   6]+0.023*[#  14]+0.023*[#  18]+0.012*[#  13]+0.012*[#  17]
          
    |psi|^2 = 0.990
==== e(  16) =    -2.13442 eV ==== 
     psi = 0.387*[#   5]+0.186*[#   6]+0.062*[#  13]+0.062*[#  17]+0.056*[#  12]
          +0.056*[#  16]+0.051*[#  14]+0.051*[#  18]+0.024*[#   8]+0.021*[#   9]
          +0.021*[#   7]+0.003*[#  11]+0.003*[#  15]+0.003*[#  10]
    |psi|^2 = 0.984
==== e(  17) =    -1.75983 eV ==== 
     psi = 0.341*[#   6]+0.185*[#   5]+0.144*[#  14]+0.144*[#  18]+0.050*[#  12]
          +0.050*[#  16]+0.027*[#   8]+0.017*[#  13]+0.017*[#  17]+0.005*[#  11]
          +0.005*[#  15]+0.005*[#   9]
    |psi|^2 = 0.990
==== e(  18) =     2.16447 eV ==== 
     psi = 0.525*[#  10]+0.063*[#  13]+0.063*[#  17]+0.057*[#  12]+0.057*[#  16]
          +0.008*[#  14]+0.008*[#  18]+0.005*[#   9]+0.003*[#  11]+0.003*[#  15]
          +0.003*[#   1]+0.002*[#   5]
    |psi|^2 = 0.795
==== e(  19) =     3.55722 eV ==== 
     psi = 0.003*[#  14]+0.003*[#  18]+0.002*[#  13]+0.002*[#  17]+0.001*[#   8]
          
    |psi|^2 = 0.015
==== e(  20) =     4.80300 eV ==== 
     psi = 0.025*[#  10]+0.007*[#  14]+0.007*[#  18]+0.002*[#  13]+0.002*[#  17]
          
    |psi|^2 = 0.047

 k =   0.2833050000  0.4906986540  0.0000000000
==== e(   1) =  -104.63549 eV ==== 
     psi = 0.995*[#   1]+0.001*[#  13]+0.001*[#  17]
    |psi|^2 = 1.000
==== e(   2) =   -65.02952 eV ==== 
     psi = 0.999*[#   2]
    |psi|^2 = 1.000
==== e(   3) =   -65.02860 eV ==== 
     psi = 0.749*[#   4]+0.250*[#   3]
    |psi|^2 = 1.000
==== e(   4) =   -65.02845 eV ==== 
     psi = 0.749*[#   3]+0.250*[#   4]
    |psi|^2 = 1.000
==== e(   5) =   -14.58628 eV ==== 
     psi = 0.481*[#  11]+0.481*[#  15]+0.013*[#  10]+0.005*[#   5]+0.003*[#  13]
          +0.003*[#  17]+0.003*[#   6]+0.002*[#  14]+0.002*[#  18]+0.002*[#  12]
          +0.002*[#  16]
    |psi|^2 = 0.999
==== e(   6) =   -14.41584 eV ==== 
     psi = 0.490*[#  11]+0.490*[#  15]+0.011*[#   6]+0.006*[#   5]
    |psi|^2 = 0.999
==== e(   7) =    -6.98602 eV ==== 
     psi = 0.246*[#  10]+0.243*[#  13]+0.243*[#  17]+0.095*[#  12]+0.095*[#  16]
          +0.017*[#  14]+0.017*[#  18]+0.007*[#  11]+0.007*[#  15]+0.006*[#   9]
          +0.006*[#   7]+0.005*[#   5]+0.002*[#   6]+0.002*[#   1]+0.002*[#   8]
          
    |psi|^2 = 0.996
==== e(   8) =    -6.33060 eV ==== 
     psi = 0.273*[#  13]+0.273*[#  17]+0.113*[#  12]+0.113*[#  16]+0.070*[#  14]
          +0.070*[#  18]+0.046*[#   8]+0.020*[#   7]+0.002*[#   9]
    |psi|^2 = 0.983
==== e(   9) =    -5.96767 eV ==== 
     psi = 0.252*[#  12]+0.252*[#  16]+0.097*[#  14]+0.097*[#  18]+0.085*[#  13]
          +0.085*[#  17]+0.032*[#   5]+0.026*[#   7]+0.025*[#  10]+0.020*[#   8]
          +0.007*[#   6]+0.002*[#   9]+0.002*[#  11]+0.002*[#  15]
    |psi|^2 = 0.983
==== e(  10) =    -5.17021 eV ==== 
     psi = 0.299*[#  12]+0.299*[#  16]+0.142*[#  13]+0.142*[#  17]+0.037*[#   6]
          +0.029*[#   8]+0.025*[#   5]+0.005*[#   7]
    |psi|^2 = 0.980
==== e(  11) =    -4.81655 eV ==== 
     psi = 0.283*[#  14]+0.283*[#  18]+0.192*[#   5]+0.107*[#   6]+0.032*[#  13]
          +0.032*[#  17]+0.025*[#  12]+0.025*[#  16]+0.005*[#   9]+0.003*[#  11]
          +0.003*[#  15]+0.003*[#   7]+0.002*[#  10]
    |psi|^2 = 0.995
==== e(  12) =    -4.54232 eV ==== 
     psi = 0.262*[#  14]+0.262*[#  18]+0.223*[#   6]+0.110*[#   5]+0.046*[#  13]
          +0.046*[#  17]+0.012*[#  12]+0.012*[#  16]+0.006*[#   9]+0.006*[#   7]
          +0.004*[#  11]+0.004*[#  15]
    |psi|^2 = 0.995
==== e(  13) =    -3.08828 eV ==== 
     psi = 0.869*[#   9]+0.067*[#   8]+0.019*[#   5]+0.008*[#  10]+0.007*[#   6]
          +0.005*[#   7]+0.003*[#  14]+0.003*[#  18]+0.002*[#  12]+0.002*[#  16]
          
    |psi|^2 = 0.988
==== e(  14) =    -2.95395 eV ==== 
     psi = 0.634*[#   7]+0.211*[#   8]+0.045*[#   9]+0.038*[#   6]+0.021*[#  14]
          +0.021*[#  18]+0.014*[#   5]+0.003*[#  10]+0.002*[#  12]+0.002*[#  16]
          +0.001*[#  13]+0.001*[#  17]
    |psi|^2 = 0.993
==== e(  15) =    -2.83826 eV ==== 
     psi = 0.560*[#   8]+0.269*[#   7]+0.033*[#   9]+0.025*[#   6]+0.022*[#  14]
          +0.022*[#  18]+0.019*[#  12]+0.019*[#  16]+0.011*[#  13]+0.011*[#  17]
          
    |psi|^2 = 0.991
==== e(  16) =    -2.11282 eV ==== 
     psi = 0.393*[#   5]+0.185*[#   6]+0.062*[#  14]+0.062*[#  18]+0.058*[#  13]
          +0.058*[#  17]+0.052*[#  12]+0.052*[#  16]+0.024*[#   8]+0.017*[#   7]
          +0.012*[#   9]+0.003*[#  11]+0.003*[#  15]+0.002*[#  10]
    |psi|^2 = 0.984
==== e(  17) =    -1.80945 eV ==== 
     psi = 0.344*[#   6]+0.187*[#   5]+0.139*[#  14]+0.139*[#  18]+0.047*[#  12]
          +0.047*[#  16]+0.029*[#   8]+0.020*[#  13]+0.020*[#  17]+0.005*[#   9]
          +0.005*[#  11]+0.005*[#  15]
    |psi|^2 = 0.988
==== e(  18) =     2.12122 eV ==== 
     psi = 0.529*[#  10]+0.063*[#  13]+0.063*[#  17]+0.058*[#  12]+0.058*[#  16]
          +0.006*[#   9]+0.004*[#  14]+0.004*[#  18]+0.003*[#   1]+0.002*[#  11]
          +0.002*[#  15]+0.001*[#   5]
    |psi|^2 = 0.795
==== e(  19) =     3.71447 eV ==== 
     psi = 0.004*[#  14]+0.004*[#  18]+0.002*[#  13]+0.002*[#  17]+0.002*[#   8]
          +0.001*[#   6]
    |psi|^2 = 0.017
==== e(  20) =     4.68094 eV ==== 
     psi = 0.007*[#  14]+0.007*[#  18]+0.004*[#  10]+0.002*[#   5]
    |psi|^2 = 0.025

 k =   0.2999700000  0.5195632807  0.0000000000
==== e(   1) =  -104.63549 eV ==== 
     psi = 0.995*[#   1]+0.001*[#  13]+0.001*[#  17]+0.001*[#  12]+0.001*[#  16]
          
    |psi|^2 = 1.000
==== e(   2) =   -65.02952 eV ==== 
     psi = 0.999*[#   2]
    |psi|^2 = 1.000
==== e(   3) =   -65.02858 eV ==== 
     psi = 0.749*[#   4]+0.250*[#   3]
    |psi|^2 = 1.000
==== e(   4) =   -65.02848 eV ==== 
     psi = 0.749*[#   3]+0.250*[#   4]
    |psi|^2 = 1.000
==== e(   5) =   -14.53350 eV ==== 
     psi = 0.486*[#  11]+0.486*[#  15]+0.007*[#   5]+0.005*[#  10]+0.003*[#   6]
          +0.002*[#  13]+0.002*[#  17]+0.002*[#  14]+0.002*[#  18]+0.001*[#  12]
          +0.001*[#  16]
    |psi|^2 = 0.999
==== e(   6) =   -14.42549 eV ==== 
     psi = 0.489*[#  11]+0.489*[#  15]+0.010*[#   6]+0.005*[#   5]
    |psi|^2 = 0.999
==== e(   7) =    -6.97840 eV ==== 
     psi = 0.260*[#  10]+0.236*[#  13]+0.236*[#  17]+0.110*[#  12]+0.110*[#  16]
          +0.010*[#  14]+0.010*[#  18]+0.007*[#   9]+0.003*[#   7]+0.003*[#  11]
          +0.003*[#  15]+0.003*[#   5]+0.002*[#   1]+0.002*[#   6]
    |psi|^2 = 0.996
==== e(   8) =    -6.30254 eV ==== 
     psi = 0.251*[#  13]+0.251*[#  17]+0.127*[#  12]+0.127*[#  16]+0.073*[#  14]
          +0.073*[#  18]+0.052*[#   8]+0.020*[#   7]+0.003*[#   5]+0.002*[#   9]
          +0.001*[#   6]
    |psi|^2 = 0.983
==== e(   9) =    -6.09969 eV ==== 
     psi = 0.241*[#  12]+0.241*[#  16]+0.102*[#  13]+0.102*[#  17]+0.094*[#  14]
          +0.094*[#  18]+0.032*[#   7]+0.028*[#   5]+0.021*[#   8]+0.018*[#  10]
          +0.006*[#   6]+0.002*[#  11]+0.002*[#  15]
    |psi|^2 = 0.984
==== e(  10) =    -5.24847 eV ==== 
     psi = 0.293*[#  12]+0.293*[#  16]+0.172*[#  13]+0.172*[#  17]+0.018*[#   6]
          +0.014*[#   8]+0.012*[#   5]+0.003*[#   7]
    |psi|^2 = 0.979
==== e(  11) =    -4.75704 eV ==== 
     psi = 0.284*[#  14]+0.284*[#  18]+0.206*[#   5]+0.110*[#   6]+0.027*[#  13]
          +0.027*[#  17]+0.022*[#  12]+0.022*[#  16]+0.004*[#   7]+0.004*[#  11]
          +0.004*[#  15]+0.001*[#  10]
    |psi|^2 = 0.995
==== e(  12) =    -4.60387 eV ==== 
     psi = 0.266*[#  14]+0.266*[#  18]+0.234*[#   6]+0.117*[#   5]+0.035*[#  13]
          +0.035*[#  17]+0.012*[#  12]+0.012*[#  16]+0.006*[#   9]+0.004*[#   7]
          +0.004*[#  11]+0.004*[#  15]+0.002*[#   8]
    |psi|^2 = 0.996
==== e(  13) =    -3.10139 eV ==== 
     psi = 0.879*[#   9]+0.066*[#   8]+0.013*[#   6]+0.009*[#   5]+0.009*[#  10]
          +0.006*[#   7]+0.001*[#  12]+0.001*[#  16]+0.001*[#  14]+0.001*[#  18]
          
    |psi|^2 = 0.988
==== e(  14) =    -2.92329 eV ==== 
     psi = 0.633*[#   7]+0.213*[#   8]+0.047*[#   9]+0.031*[#   6]+0.024*[#  14]
          +0.024*[#  18]+0.009*[#   5]+0.003*[#  12]+0.003*[#  16]+0.002*[#  13]
          +0.002*[#  17]+0.001*[#  10]
    |psi|^2 = 0.993
==== e(  15) =    -2.85148 eV ==== 
     psi = 0.564*[#   8]+0.273*[#   7]+0.034*[#   9]+0.029*[#   6]+0.021*[#  14]
          +0.021*[#  18]+0.015*[#  12]+0.015*[#  16]+0.010*[#  13]+0.010*[#  17]
          
    |psi|^2 = 0.992
[...]
==== e(   1) =  -104.63551 eV ==== 
     psi = 0.995*[#   1]+0.002*[#  14]+0.002*[#  18]
    |psi|^2 = 1.000
==== e(   2) =   -65.02961 eV ==== 
     psi = 0.999*[#   2]
    |psi|^2 = 1.000
==== e(   3) =   -65.02824 eV ==== 
     psi = 0.750*[#   3]+0.250*[#   4]
    |psi|^2 = 1.000
==== e(   4) =   -65.02818 eV ==== 
     psi = 0.750*[#   4]+0.250*[#   3]
    |psi|^2 = 1.000
==== e(   5) =   -15.63526 eV ==== 
     psi = 0.377*[#  11]+0.377*[#  15]+0.231*[#  10]+0.004*[#  14]+0.004*[#  18]
          +0.003*[#  13]+0.003*[#  17]
    |psi|^2 = 1.000
==== e(   6) =   -14.76506 eV ==== 
     psi = 0.492*[#  11]+0.492*[#  15]+0.003*[#   6]+0.003*[#  13]+0.003*[#  17]
          +0.002*[#  14]+0.002*[#  18]
    |psi|^2 = 0.998
==== e(   7) =    -6.62284 eV ==== 
     psi = 0.384*[#  14]+0.384*[#  18]+0.085*[#  10]+0.051*[#   9]+0.036*[#  11]
          +0.036*[#  15]+0.006*[#   8]+0.003*[#  13]+0.003*[#  17]+0.002*[#   1]
          +0.002*[#   6]
    |psi|^2 = 0.995
==== e(   8) =    -5.18420 eV ==== 
     psi = 0.366*[#   6]+0.238*[#  13]+0.238*[#  17]+0.055*[#  14]+0.055*[#  18]
          +0.022*[#   9]+0.008*[#   8]+0.003*[#   5]
    |psi|^2 = 0.990
==== e(   9) =    -4.82974 eV ==== 
     psi = 0.469*[#   5]+0.233*[#  12]+0.233*[#  16]+0.049*[#   7]+0.004*[#   6]
          
    |psi|^2 = 0.991
==== e(  10) =    -3.96500 eV ==== 
     psi = 0.304*[#  13]+0.304*[#  17]+0.129*[#   9]+0.109*[#   8]+0.071*[#   6]
          +0.030*[#  10]+0.011*[#  11]+0.011*[#  15]+0.004*[#  14]+0.004*[#  18]
          +0.002*[#   7]
    |psi|^2 = 0.982
==== e(  11) =    -3.53921 eV ==== 
     psi = 0.432*[#  14]+0.432*[#  18]+0.053*[#  13]+0.053*[#  17]+0.012*[#   6]
          +0.003*[#   9]
    |psi|^2 = 0.988
==== e(  12) =    -3.53572 eV ==== 
     psi = 0.487*[#   7]+0.192*[#  12]+0.192*[#  16]+0.104*[#   5]+0.005*[#   9]
          
    |psi|^2 = 0.983
==== e(  13) =    -3.17062 eV ==== 
     psi = 0.806*[#   8]+0.108*[#   9]+0.019*[#  13]+0.019*[#  17]+0.017*[#  10]
          +0.004*[#  11]+0.004*[#  15]+0.003*[#  14]+0.003*[#  18]
    |psi|^2 = 0.983
==== e(  14) =    -2.73876 eV ==== 
     psi = 0.410*[#   7]+0.283*[#  12]+0.283*[#  16]+0.004*[#   9]+0.003*[#   5]
          
    |psi|^2 = 0.986
==== e(  15) =    -2.73062 eV ==== 
     psi = 0.651*[#   9]+0.109*[#  13]+0.109*[#  17]+0.046*[#   8]+0.031*[#  14]
          +0.031*[#  18]+0.008*[#   7]+0.006*[#   6]
    |psi|^2 = 0.990
==== e(  16) =    -1.79506 eV ==== 
     psi = 0.518*[#   6]+0.208*[#  13]+0.208*[#  17]+0.010*[#   9]+0.009*[#  14]
          +0.009*[#  18]+0.005*[#  11]+0.005*[#  15]+0.005*[#   8]+0.004*[#   5]
          
    |psi|^2 = 0.983
==== e(  17) =    -1.40235 eV ==== 
     psi = 0.405*[#   5]+0.277*[#  12]+0.277*[#  16]+0.030*[#   7]+0.003*[#   6]
          
    |psi|^2 = 0.995
==== e(  18) =     2.30793 eV ==== 
     psi = 0.283*[#  10]+0.032*[#  14]+0.032*[#  18]+0.031*[#  11]+0.031*[#  15]
          +0.016*[#  13]+0.016*[#  17]
    |psi|^2 = 0.444
==== e(  19) =     2.86648 eV ==== 
     psi = 0.002*[#  10]
    |psi|^2 = 0.006
==== e(  20) =     3.08540 eV ==== 
     psi = 0.091*[#  10]+0.015*[#  13]+0.015*[#  17]+0.010*[#  11]+0.010*[#  15]
          +0.009*[#  14]+0.009*[#  18]+0.002*[#   8]+0.002*[#   9]
    |psi|^2 = 0.164

 k =   0.1000000000  0.0577350269  0.0000000000
==== e(   1) =  -104.63551 eV ==== 
     psi = 0.995*[#   1]+0.002*[#  14]+0.002*[#  18]
    |psi|^2 = 1.000
==== e(   2) =   -65.02961 eV ==== 
     psi = 0.999*[#   2]
    |psi|^2 = 1.000
==== e(   3) =   -65.02822 eV ==== 
     psi = 0.750*[#   3]+0.250*[#   4]
    |psi|^2 = 1.000
==== e(   4) =   -65.02818 eV ==== 
     psi = 0.750*[#   4]+0.250*[#   3]
    |psi|^2 = 1.000
==== e(   5) =   -15.67717 eV ==== 
     psi = 0.373*[#  11]+0.373*[#  15]+0.240*[#  10]+0.004*[#  14]+0.004*[#  18]
          +0.002*[#  13]+0.002*[#  17]
    |psi|^2 = 1.000
==== e(   6) =   -14.78791 eV ==== 
     psi = 0.493*[#  11]+0.493*[#  15]+0.003*[#  14]+0.003*[#  18]+0.002*[#   6]
          +0.002*[#  13]+0.002*[#  17]
    |psi|^2 = 0.998
==== e(   7) =    -6.66278 eV ==== 
     psi = 0.387*[#  14]+0.387*[#  18]+0.081*[#  10]+0.054*[#   9]+0.036*[#  11]
          +0.036*[#  15]+0.005*[#   8]+0.002*[#   1]+0.002*[#   6]+0.002*[#  13]
          +0.002*[#  17]
    |psi|^2 = 0.995
==== e(   8) =    -5.07316 eV ==== 
     psi = 0.408*[#   6]+0.229*[#  13]+0.229*[#  17]+0.045*[#  14]+0.045*[#  18]
          +0.022*[#   9]+0.007*[#   8]+0.003*[#   5]
    |psi|^2 = 0.990
==== e(   9) =    -4.83173 eV ==== 
     psi = 0.471*[#   5]+0.229*[#  12]+0.229*[#  16]+0.055*[#   7]+0.004*[#   6]
          
    |psi|^2 = 0.991
==== e(  10) =    -3.72339 eV ==== 
     psi = 0.273*[#  13]+0.273*[#  17]+0.166*[#   8]+0.151*[#   9]+0.066*[#   6]
          +0.023*[#  10]+0.008*[#  11]+0.008*[#  15]+0.004*[#  14]+0.004*[#  18]
          +0.003*[#   7]
    |psi|^2 = 0.982
==== e(  11) =    -3.58783 eV ==== 
     psi = 0.444*[#  14]+0.444*[#  18]+0.037*[#  13]+0.037*[#  17]+0.013*[#   6]
          +0.008*[#   9]+0.003*[#   8]+0.002*[#  11]+0.002*[#  15]
    |psi|^2 = 0.990
==== e(  12) =    -3.45345 eV ==== 
     psi = 0.555*[#   7]+0.155*[#  12]+0.155*[#  16]+0.110*[#   5]+0.005*[#   9]
          
    |psi|^2 = 0.983
==== e(  13) =    -3.15722 eV ==== 
     psi = 0.756*[#   8]+0.133*[#   9]+0.030*[#  13]+0.030*[#  17]+0.018*[#  10]
          +0.005*[#  11]+0.005*[#  15]+0.003*[#  14]+0.003*[#  18]
    |psi|^2 = 0.984
==== e(  14) =    -2.75403 eV ==== 
     psi = 0.326*[#  12]+0.326*[#  16]+0.323*[#   7]+0.005*[#   5]+0.003*[#   9]
          
    |psi|^2 = 0.986
==== e(  15) =    -2.73876 eV ==== 
     psi = 0.591*[#   9]+0.144*[#  13]+0.144*[#  17]+0.037*[#   8]+0.028*[#  14]
          +0.028*[#  18]+0.009*[#   6]+0.007*[#   7]
    |psi|^2 = 0.990
==== e(  16) =    -1.65664 eV ==== 
     psi = 0.479*[#   6]+0.232*[#  13]+0.232*[#  17]+0.014*[#   9]+0.006*[#   8]
          +0.004*[#   5]+0.004*[#  11]+0.004*[#  14]+0.004*[#  15]+0.004*[#  18]
          
    |psi|^2 = 0.984
==== e(  17) =    -1.37327 eV ==== 
     psi = 0.395*[#   5]+0.276*[#  12]+0.276*[#  16]+0.042*[#   7]+0.003*[#   6]
          
    |psi|^2 = 0.995
==== e(  18) =     2.16864 eV ==== 
     psi = 0.309*[#  10]+0.037*[#  11]+0.037*[#  15]+0.036*[#  14]+0.036*[#  18]
          +0.013*[#  13]+0.013*[#  17]
    |psi|^2 = 0.484
==== e(  19) =     2.81848 eV ==== 
 
    |psi|^2 = 0.002
==== e(  20) =     3.05997 eV ==== 
     psi = 0.024*[#  10]+0.007*[#  13]+0.007*[#  17]+0.003*[#  11]+0.003*[#  14]
          +0.003*[#  15]+0.003*[#  18]
    |psi|^2 = 0.055

 k =   0.0750000000  0.0433012702  0.0000000000
==== e(   1) =  -104.63551 eV ==== 
     psi = 0.996*[#   1]+0.002*[#  14]+0.002*[#  18]
    |psi|^2 = 1.000
==== e(   2) =   -65.02962 eV ==== 
     psi = 0.999*[#   2]
    |psi|^2 = 1.000
==== e(   3) =   -65.02819 eV ==== 
     psi = 0.750*[#   3]+0.250*[#   4]
    |psi|^2 = 1.000
==== e(   4) =   -65.02817 eV ==== 
     psi = 0.750*[#   4]+0.250*[#   3]
    |psi|^2 = 1.000
==== e(   5) =   -15.71026 eV ==== 
     psi = 0.370*[#  11]+0.370*[#  15]+0.247*[#  10]+0.004*[#  14]+0.004*[#  18]
          +0.001*[#  13]+0.001*[#  17]+0.001*[#   1]
    |psi|^2 = 1.000
==== e(   6) =   -14.80625 eV ==== 
     psi = 0.494*[#  11]+0.494*[#  15]+0.003*[#  14]+0.003*[#  18]+0.001*[#   6]
          +0.001*[#  13]+0.001*[#  17]
    |psi|^2 = 0.997
==== e(   7) =    -6.69539 eV ==== 
     psi = 0.389*[#  14]+0.389*[#  18]+0.078*[#  10]+0.056*[#   9]+0.035*[#  11]
          +0.035*[#  15]+0.005*[#   8]+0.003*[#   1]+0.002*[#   6]+0.001*[#  13]
          +0.001*[#  17]
    |psi|^2 = 0.995
==== e(   8) =    -4.97754 eV ==== 
     psi = 0.447*[#   6]+0.223*[#  13]+0.223*[#  17]+0.032*[#  14]+0.032*[#  18]
          +0.022*[#   9]+0.006*[#   8]+0.004*[#   5]
    |psi|^2 = 0.991
==== e(   9) =    -4.83336 eV ==== 
     psi = 0.473*[#   5]+0.226*[#  12]+0.226*[#  16]+0.060*[#   7]+0.004*[#   6]
          
    |psi|^2 = 0.991
==== e(  10) =    -3.64525 eV ==== 
     psi = 0.455*[#  14]+0.455*[#  18]+0.025*[#  13]+0.025*[#  17]+0.025*[#   6]
          +0.002*[#  11]+0.002*[#  15]+0.001*[#   8]
    |psi|^2 = 0.992
==== e(  11) =    -3.50918 eV ==== 
     psi = 0.294*[#   8]+0.213*[#  13]+0.213*[#  17]+0.177*[#   9]+0.045*[#   6]
          +0.014*[#  10]+0.006*[#  14]+0.006*[#  18]+0.005*[#  11]+0.005*[#  15]
          +0.003*[#   7]
    |psi|^2 = 0.982
==== e(  12) =    -3.37843 eV ==== 
     psi = 0.635*[#   7]+0.117*[#   5]+0.112*[#  12]+0.112*[#  16]+0.006*[#   9]
          
    |psi|^2 = 0.984
==== e(  13) =    -3.13742 eV ==== 
     psi = 0.642*[#   8]+0.193*[#   9]+0.054*[#  13]+0.054*[#  17]+0.020*[#  10]
          +0.005*[#  11]+0.005*[#  15]+0.005*[#  14]+0.005*[#  18]+0.001*[#   6]
          
    |psi|^2 = 0.984
==== e(  14) =    -2.77623 eV ==== 
     psi = 0.373*[#  12]+0.373*[#  16]+0.228*[#   7]+0.006*[#   5]+0.002*[#   9]
          
    |psi|^2 = 0.985
==== e(  15) =    -2.75400 eV ==== 
     psi = 0.506*[#   9]+0.196*[#  13]+0.196*[#  17]+0.027*[#   8]+0.024*[#  14]
          +0.024*[#  18]+0.010*[#   6]+0.006*[#   7]
    |psi|^2 = 0.989
==== e(  16) =    -1.52231 eV ==== 
     psi = 0.449*[#   6]+0.251*[#  13]+0.251*[#  17]+0.017*[#   9]+0.007*[#   8]
          +0.004*[#   5]+0.002*[#  11]+0.002*[#  15]+0.001*[#  14]+0.001*[#  18]
          
    |psi|^2 = 0.987
==== e(  17) =    -1.34657 eV ==== 
     psi = 0.386*[#   5]+0.276*[#  12]+0.276*[#  16]+0.052*[#   7]+0.003*[#   6]
          
    |psi|^2 = 0.996
==== e(  18) =     2.04159 eV ==== 
     psi = 0.336*[#  10]+0.043*[#  11]+0.043*[#  15]+0.041*[#  14]+0.041*[#  18]
          +0.009*[#  13]+0.009*[#  17]
    |psi|^2 = 0.525
==== e(  19) =     2.77685 eV ==== 
 
    |psi|^2 = 0.002
==== e(  20) =     2.90234 eV ==== 
     psi = 0.004*[#  13]+0.004*[#  17]+0.002*[#  10]+0.001*[#   6]+0.001*[#  11]
          +0.001*[#  15]
    |psi|^2 = 0.016

 k =   0.0500000000  0.0288675135  0.0000000000
==== e(   1) =  -104.63551 eV ==== 
     psi = 0.996*[#   1]+0.002*[#  14]+0.002*[#  18]
    |psi|^2 = 1.000
==== e(   2) =   -65.02962 eV ==== 
     psi = 0.999*[#   2]
    |psi|^2 = 1.000
==== e(   3) =   -65.02818 eV ==== 
     psi = 0.750*[#   3]+0.250*[#   4]
    |psi|^2 = 1.000
==== e(   4) =   -65.02817 eV ==== 
     psi = 0.750*[#   4]+0.250*[#   3]
    |psi|^2 = 1.000
==== e(   5) =   -15.73415 eV ==== 
     psi = 0.368*[#  11]+0.368*[#  15]+0.253*[#  10]+0.004*[#  14]+0.004*[#  18]
          +0.001*[#   1]
    |psi|^2 = 1.000
==== e(   6) =   -14.81965 eV ==== 
     psi = 0.495*[#  11]+0.495*[#  15]+0.003*[#  14]+0.003*[#  18]
    |psi|^2 = 0.997
==== e(   7) =    -6.71943 eV ==== 
     psi = 0.389*[#  14]+0.389*[#  18]+0.077*[#  10]+0.058*[#   9]+0.035*[#  11]
          +0.035*[#  15]+0.004*[#   8]+0.003*[#   1]+0.002*[#   6]
    |psi|^2 = 0.995
==== e(   8) =    -4.90205 eV ==== 
     psi = 0.480*[#   6]+0.221*[#  13]+0.221*[#  17]+0.023*[#   9]+0.017*[#  14]
          +0.017*[#  18]+0.005*[#   8]+0.004*[#   5]
    |psi|^2 = 0.991
==== e(   9) =    -4.83458 eV ==== 
     psi = 0.474*[#   5]+0.224*[#  12]+0.224*[#  16]+0.063*[#   7]+0.004*[#   6]
          
    |psi|^2 = 0.991
==== e(  10) =    -3.69383 eV ==== 
     psi = 0.476*[#  14]+0.476*[#  18]+0.013*[#   6]+0.011*[#  13]+0.011*[#  17]
          +0.003*[#  11]+0.003*[#  15]
    |psi|^2 = 0.993
==== e(  11) =    -3.35442 eV ==== 
     psi = 0.554*[#   8]+0.145*[#   9]+0.114*[#  13]+0.114*[#  17]+0.040*[#   6]
          +0.005*[#  10]+0.004*[#   7]+0.002*[#  11]+0.002*[#  15]
    |psi|^2 = 0.983
==== e(  12) =    -3.31557 eV ==== 
     psi = 0.724*[#   7]+0.124*[#   5]+0.063*[#  12]+0.063*[#  16]+0.007*[#   9]
          +0.001*[#   8]
    |psi|^2 = 0.984
==== e(  13) =    -3.09987 eV ==== 
     psi = 0.395*[#   8]+0.346*[#   9]+0.092*[#  13]+0.092*[#  17]+0.023*[#  10]
          +0.008*[#  14]+0.008*[#  18]+0.007*[#   6]+0.006*[#  11]+0.006*[#  15]
          +0.001*[#   7]
    |psi|^2 = 0.985
==== e(  14) =    -2.80107 eV ==== 
     psi = 0.425*[#  12]+0.425*[#  16]+0.127*[#   7]+0.005*[#   5]+0.001*[#   9]
          +0.001*[#  13]+0.001*[#  17]
    |psi|^2 = 0.985
==== e(  15) =    -2.77794 eV ==== 
     psi = 0.378*[#   9]+0.272*[#  13]+0.272*[#  17]+0.017*[#  14]+0.017*[#  18]
          +0.016*[#   8]+0.009*[#   6]+0.004*[#   7]
    |psi|^2 = 0.988
==== e(  16) =    -1.40913 eV ==== 
     psi = 0.428*[#   6]+0.264*[#  13]+0.264*[#  17]+0.019*[#   9]+0.008*[#   8]
          +0.003*[#   5]
    |psi|^2 = 0.991
==== e(  17) =    -1.32502 eV ==== 
     psi = 0.379*[#   5]+0.276*[#  12]+0.276*[#  16]+0.061*[#   7]+0.003*[#   6]
          
    |psi|^2 = 0.997
==== e(  18) =     1.93780 eV ==== 
     psi = 0.359*[#  10]+0.049*[#  11]+0.049*[#  15]+0.045*[#  14]+0.045*[#  18]
          +0.005*[#  13]+0.005*[#  17]
    |psi|^2 = 0.558
==== e(  19) =     2.72666 eV ==== 
     psi = 0.002*[#  13]+0.002*[#  17]+0.001*[#  14]+0.001*[#  18]
    |psi|^2 = 0.009
==== e(  20) =     2.75576 eV ==== 
 
    |psi|^2 = 0.002

 k =   0.0250000000  0.0144337567  0.0000000000
==== e(   1) =  -104.63551 eV ==== 
     psi = 0.996*[#   1]+0.002*[#  14]+0.002*[#  18]
    |psi|^2 = 1.000
==== e(   2) =   -65.02962 eV ==== 
     psi = 0.999*[#   2]
    |psi|^2 = 1.000
==== e(   3) =   -65.02817 eV ==== 
     psi = 0.750*[#   3]+0.249*[#   4]
    |psi|^2 = 1.000
==== e(   4) =   -65.02817 eV ==== 
     psi = 0.750*[#   4]+0.249*[#   3]
    |psi|^2 = 1.000
==== e(   5) =   -15.74859 eV ==== 
     psi = 0.367*[#  11]+0.367*[#  15]+0.256*[#  10]+0.004*[#  14]+0.004*[#  18]
          +0.001*[#   1]
    |psi|^2 = 1.000
==== e(   6) =   -14.82781 eV ==== 
     psi = 0.495*[#  11]+0.495*[#  15]+0.003*[#  14]+0.003*[#  18]
    |psi|^2 = 0.997
==== e(   7) =    -6.73414 eV ==== 
     psi = 0.390*[#  14]+0.390*[#  18]+0.076*[#  10]+0.059*[#   9]+0.035*[#  11]
          +0.035*[#  15]+0.004*[#   8]+0.003*[#   1]+0.002*[#   6]
    |psi|^2 = 0.995
==== e(   8) =    -4.85282 eV ==== 
     psi = 0.504*[#   6]+0.221*[#  13]+0.221*[#  17]+0.023*[#   9]+0.005*[#  14]
          +0.005*[#  18]+0.005*[#   8]+0.004*[#   5]
    |psi|^2 = 0.991
==== e(   9) =    -4.83534 eV ==== 
     psi = 0.474*[#   5]+0.222*[#  12]+0.222*[#  16]+0.066*[#   7]+0.004*[#   6]
          
    |psi|^2 = 0.991
==== e(  10) =    -3.72851 eV ==== 
     psi = 0.489*[#  14]+0.489*[#  18]+0.004*[#   6]+0.003*[#  13]+0.003*[#  17]
          +0.003*[#  11]+0.003*[#  15]
    |psi|^2 = 0.994
==== e(  11) =    -3.27602 eV ==== 
     psi = 0.828*[#   8]+0.073*[#   9]+0.029*[#   6]+0.024*[#  13]+0.024*[#  17]
          +0.003*[#   7]
    |psi|^2 = 0.984
==== e(  12) =    -3.27200 eV ==== 
     psi = 0.805*[#   7]+0.131*[#   5]+0.019*[#  12]+0.019*[#  16]+0.008*[#   9]
          +0.001*[#   8]
    |psi|^2 = 0.984
==== e(  13) =    -3.03813 eV ==== 
     psi = 0.613*[#   9]+0.133*[#   8]+0.075*[#  13]+0.075*[#  17]+0.024*[#  10]
          +0.021*[#   6]+0.015*[#  14]+0.015*[#  18]+0.006*[#  11]+0.006*[#  15]
          +0.004*[#   7]
    |psi|^2 = 0.985
==== e(  14) =    -2.82172 eV ==== 
     psi = 0.471*[#  12]+0.471*[#  16]+0.038*[#   7]+0.002*[#   5]+0.001*[#  13]
          +0.001*[#  17]
    |psi|^2 = 0.985
==== e(  15) =    -2.80962 eV ==== 
     psi = 0.388*[#  13]+0.388*[#  17]+0.179*[#   9]+0.008*[#  14]+0.008*[#  18]
          +0.005*[#   8]+0.005*[#   6]+0.002*[#   7]
    |psi|^2 = 0.986
==== e(  16) =    -1.33304 eV ==== 
     psi = 0.416*[#   6]+0.272*[#  13]+0.272*[#  17]+0.021*[#   9]+0.008*[#   8]
          +0.003*[#   5]
    |psi|^2 = 0.996
==== e(  17) =    -1.31100 eV ==== 
     psi = 0.375*[#   5]+0.275*[#  12]+0.275*[#  16]+0.066*[#   7]+0.003*[#   6]
          
    |psi|^2 = 0.997
==== e(  18) =     1.86917 eV ==== 
     psi = 0.374*[#  10]+0.053*[#  11]+0.053*[#  15]+0.048*[#  14]+0.048*[#  18]
          +0.001*[#   9]+0.001*[#  13]+0.001*[#  17]
    |psi|^2 = 0.580
==== e(  19) =     2.61754 eV ==== 
     psi = 0.001*[#  11]+0.001*[#  15]
    |psi|^2 = 0.006
==== e(  20) =     2.73078 eV ==== 
 
    |psi|^2 = 0.000

 k =   0.0000000000  0.0000000000  0.0000000000
==== e(   1) =  -104.63551 eV ==== 
     psi = 0.996*[#   1]+0.002*[#  14]+0.002*[#  18]
    |psi|^2 = 1.000
==== e(   2) =   -65.02962 eV ==== 
     psi = 0.999*[#   2]
    |psi|^2 = 1.000
==== e(   3) =   -65.02816 eV ==== 
     psi = 0.797*[#   3]+0.203*[#   4]
    |psi|^2 = 1.000
==== e(   4) =   -65.02816 eV ==== 
     psi = 0.797*[#   4]+0.203*[#   3]
    |psi|^2 = 1.000
==== e(   5) =   -15.75342 eV ==== 
     psi = 0.366*[#  11]+0.366*[#  15]+0.257*[#  10]+0.004*[#  14]+0.004*[#  18]
          +0.001*[#   1]
    |psi|^2 = 1.000
==== e(   6) =   -14.83055 eV ==== 
     psi = 0.495*[#  11]+0.495*[#  15]+0.003*[#  14]+0.003*[#  18]
    |psi|^2 = 0.997
==== e(   7) =    -6.73908 eV ==== 
     psi = 0.390*[#  14]+0.390*[#  18]+0.075*[#  10]+0.059*[#   9]+0.035*[#  11]
          +0.035*[#  15]+0.004*[#   8]+0.003*[#   1]+0.002*[#   6]
    |psi|^2 = 0.995
==== e(   8) =    -4.83559 eV ==== 
     psi = 0.309*[#   5]+0.182*[#   6]+0.172*[#  12]+0.172*[#  16]+0.050*[#  13]
          +0.050*[#  17]+0.043*[#   7]+0.011*[#   9]+0.001*[#   8]
    |psi|^2 = 0.991
==== e(   9) =    -4.83559 eV ==== 
     psi = 0.336*[#   6]+0.172*[#  13]+0.172*[#  17]+0.170*[#   5]+0.050*[#  12]
          +0.050*[#  16]+0.024*[#   7]+0.013*[#   9]+0.003*[#   8]
    |psi|^2 = 0.991
==== e(  10) =    -3.74111 eV ==== 
     psi = 0.494*[#  14]+0.494*[#  18]+0.003*[#  11]+0.003*[#  15]
    |psi|^2 = 0.995
==== e(  11) =    -3.25608 eV ==== 
     psi = 0.662*[#   8]+0.219*[#   7]+0.049*[#   9]+0.034*[#   5]+0.020*[#   6]
          
    |psi|^2 = 0.984
==== e(  12) =    -3.25608 eV ==== 
     psi = 0.624*[#   7]+0.248*[#   8]+0.100*[#   5]+0.007*[#   9]+0.005*[#   6]
          
    |psi|^2 = 0.984
==== e(  13) =    -3.00022 eV ==== 
     psi = 0.817*[#   9]+0.057*[#   8]+0.030*[#   6]+0.023*[#  10]+0.021*[#  14]
          +0.021*[#  18]+0.007*[#   7]+0.005*[#  11]+0.005*[#  15]
    |psi|^2 = 0.986
==== e(  14) =    -2.82999 eV ==== 
     psi = 0.389*[#  12]+0.389*[#  16]+0.103*[#  13]+0.103*[#  17]
    |psi|^2 = 0.985
==== e(  15) =    -2.82999 eV ==== 
     psi = 0.389*[#  13]+0.389*[#  17]+0.103*[#  12]+0.103*[#  16]
    |psi|^2 = 0.985
==== e(  16) =    -1.30614 eV ==== 
     psi = 0.293*[#   6]+0.227*[#  13]+0.227*[#  17]+0.113*[#   5]+0.049*[#  12]
          +0.049*[#  16]+0.020*[#   7]+0.013*[#   9]+0.006*[#   8]
    |psi|^2 = 0.998
==== e(  17) =    -1.30614 eV ==== 
     psi = 0.264*[#   5]+0.227*[#  12]+0.227*[#  16]+0.123*[#   6]+0.049*[#  13]
          +0.049*[#  17]+0.048*[#   7]+0.009*[#   9]+0.002*[#   8]
    |psi|^2 = 0.998
==== e(  18) =     1.84510 eV ==== 
     psi = 0.379*[#  10]+0.054*[#  11]+0.054*[#  15]+0.049*[#  14]+0.049*[#  18]
          +0.002*[#   9]
    |psi|^2 = 0.588
==== e(  19) =     2.57689 eV ==== 
     psi = 0.001*[#  11]+0.001*[#  15]
    |psi|^2 = 0.004
==== e(  20) =     2.72418 eV ==== 
 
    |psi|^2 = 0.000

Lowdin Charges: 

     Atom #   1: total charge =  17.5111, s =  2.6286, 
     Atom #   1: total charge =  17.5111, p =  5.9999, p1=  2.0000, p2=  2.0000, p3=  2.0000, 
     Atom #   1: total charge =  17.5111, d =  8.8827, d1=  1.4874, d2=  1.5441, d3=  1.9383, d4=  1.9517, d5=  1.9612, 
     Atom #   2: total charge =   7.1200, s =  1.9340, 
     Atom #   2: total charge =   7.1200, p =  5.1860, p1=  1.6250, p2=  1.7375, p3=  1.8235, 
     Atom #   2: total charge =   7.1200, d =  0.0000, d1=  0.0000, d2=  0.0000, d3=  0.0000, d4=  0.0000, d5=  0.0000, 
     Atom #   3: total charge =   7.1200, s =  1.9340, 
     Atom #   3: total charge =   7.1200, p =  5.1860, p1=  1.6250, p2=  1.7375, p3=  1.8235, 
     Atom #   3: total charge =   7.1200, d =  0.0000, d1=  0.0000, d2=  0.0000, d3=  0.0000, d4=  0.0000, d5=  0.0000, 
     Spilling Parameter:   0.0078
 
     PROJWFC      :      2.78s CPU      3.66s WALL

 
   This run was terminated on:  15:29:23  27Jun2023            

=------------------------------------------------------------------------------=
   JOB DONE.
=------------------------------------------------------------------------------=
