
     Program PROJWFC v.7.1 starts on 26Jun2023 at 23:34: 6 

     This program is part of the open-source Quantum ESPRESSO suite
     for quantum simulation of materials; please cite
         "P. Giannozzi et al., J. Phys.:Condens. Matter 21 395502 (2009);
         "P. Giannozzi et al., J. Phys.:Condens. Matter 29 465901 (2017);
         "P. Giannozzi et al., J. Chem. Phys. 152 154105 (2020);
          URL http://www.quantum-espresso.org", 
     in publications or presentations arising from this work. More details at
     http://www.quantum-espresso.org/quote

     Parallel version (MPI & OpenMP), running on      20 processor cores
     Number of MPI processes:                20
     Threads/MPI process:                     1

     MPI processes distributed on     1 nodes
     R & G space division:  proc/nbgrp/npool/nimage =      20
     237280 MiB available memory on the printing compute node when the environment starts
 

     Reading xml data from directory:

     ./tmp/c.save/

     IMPORTANT: XC functional enforced from input :
     Exchange-correlation= PBE
                           (   1   4   3   4   0   0   0)
     Any further DFT definition will be discarded
     Please, verify this is what you really want

 
     Parallelization info
     --------------------
     sticks:   dense  smooth     PW     G-vecs:    dense   smooth      PW
     Min          93      89     21                20483    19267    2377
     Max          94      90     22                20500    19300    2420
     Sum        1879    1789    439               409943   385631   48107
 
     Using Slab Decomposition
 

     Gaussian broadening (read from input): ngauss,degauss=   0    0.003000


     Calling projwave .... 
     Subspace diagonalization in iterative solution of the eigenvalue problem:
     one sub-group per band group will be used
     ELPA distributed-memory algorithm (size of sub-group:  4*  4 procs)

     linear algebra parallelized on  16 procs
 
  Problem Sizes 
  natomwfc =           18
  nx       =            5
  nbnd     =           20
  nkstot   =            1
  npwx     =         2400
  nkb      =           54
 

     --------------------- ATOM    1 ----------------------

     Orbital quantum number l = 0
     occupation matrix ns (before diag.):
       1.999
     eigenvalues:
       1.999
     eigenvectors (columns):
       1.000

     Orbital quantum number l = 1
     occupation matrix ns (before diag.):
       2.000  0.000 -0.000
       0.000  2.000  0.000
      -0.000  0.000  2.000
     eigenvalues:
       2.000  2.000  2.000
     eigenvectors (columns):
       1.000  0.000  0.000
       0.000  1.000  0.000
       0.000  0.000  1.000

     Orbital quantum number l = 2
     occupation matrix ns (before diag.):
       1.954 -0.000 -0.000 -0.000 -0.000
      -0.000  1.842 -0.000  0.000 -0.197
      -0.000 -0.000  1.842 -0.197 -0.000
      -0.000  0.000 -0.197  1.665  0.000
      -0.000 -0.197 -0.000  0.000  1.665
     eigenvalues:
       1.537  1.537  1.954  1.969  1.969
     eigenvectors (columns):
       0.000  0.000  1.000 -0.000  0.000
      -0.446  0.311 -0.000 -0.828 -0.136
       0.311  0.446 -0.000 -0.136  0.828
       0.480  0.689  0.000  0.088 -0.536
      -0.689  0.480 -0.000  0.536  0.088

     Orbital quantum number l = 0
     occupation matrix ns (before diag.):
       0.711
     eigenvalues:
       0.711
     eigenvectors (columns):
       1.000

     --------------------- ATOM    2 ----------------------

     Orbital quantum number l = 0
     occupation matrix ns (before diag.):
       1.810
     eigenvalues:
       1.810
     eigenvectors (columns):
       1.000

     Orbital quantum number l = 1
     occupation matrix ns (before diag.):
       1.831  0.000 -0.000
       0.000  1.706  0.000
      -0.000  0.000  1.706
     eigenvalues:
       1.831  1.706  1.706
     eigenvectors (columns):
       1.000  0.000  0.000
       0.000  1.000  0.000
       0.000  0.000  1.000

     --------------------- ATOM    3 ----------------------

     Orbital quantum number l = 0
     occupation matrix ns (before diag.):
       1.810
     eigenvalues:
       1.810
     eigenvectors (columns):
       1.000

     Orbital quantum number l = 1
     occupation matrix ns (before diag.):
       1.831  0.000 -0.000
       0.000  1.706  0.000
      -0.000  0.000  1.706
     eigenvalues:
       1.831  1.706  1.706
     eigenvectors (columns):
       1.000  0.000  0.000
       0.000  1.000  0.000
       0.000  0.000  1.000

     Rotating the orbitals to the diagonal representation of ns...

     Atomic states used for projection
     (read from pseudopotential files):

     state #   1: atom   1 (Ni ), wfc  1 (l=0 m= 1)
     state #   2: atom   1 (Ni ), wfc  2 (l=1 m= 1)
     state #   3: atom   1 (Ni ), wfc  2 (l=1 m= 2)
     state #   4: atom   1 (Ni ), wfc  2 (l=1 m= 3)
     state #   5: atom   1 (Ni ), wfc  3 (l=2 m= 1)
     state #   6: atom   1 (Ni ), wfc  3 (l=2 m= 2)
     state #   7: atom   1 (Ni ), wfc  3 (l=2 m= 3)
     state #   8: atom   1 (Ni ), wfc  3 (l=2 m= 4)
     state #   9: atom   1 (Ni ), wfc  3 (l=2 m= 5)
     state #  10: atom   1 (Ni ), wfc  4 (l=0 m= 1)
     state #  11: atom   2 (I  ), wfc  1 (l=0 m= 1)
     state #  12: atom   2 (I  ), wfc  2 (l=1 m= 1)
     state #  13: atom   2 (I  ), wfc  2 (l=1 m= 2)
     state #  14: atom   2 (I  ), wfc  2 (l=1 m= 3)
     state #  15: atom   3 (I  ), wfc  1 (l=0 m= 1)
     state #  16: atom   3 (I  ), wfc  2 (l=1 m= 1)
     state #  17: atom   3 (I  ), wfc  2 (l=1 m= 2)
     state #  18: atom   3 (I  ), wfc  2 (l=1 m= 3)

 k =   0.0000000000  0.0000000000  0.0000000000
==== e(   1) =  -104.63551 eV ==== 
     psi = 0.996*[#   1]+0.002*[#  12]+0.002*[#  16]
    |psi|^2 = 1.000
==== e(   2) =   -65.02962 eV ==== 
     psi = 0.999*[#   2]
    |psi|^2 = 1.000
==== e(   3) =   -65.02816 eV ==== 
     psi = 0.793*[#   3]+0.206*[#   4]
    |psi|^2 = 1.000
==== e(   4) =   -65.02816 eV ==== 
     psi = 0.793*[#   4]+0.206*[#   3]
    |psi|^2 = 1.000
==== e(   5) =   -15.75342 eV ==== 
     psi = 0.366*[#  11]+0.366*[#  15]+0.257*[#  10]+0.004*[#  12]+0.004*[#  16]
          +0.001*[#   1]
    |psi|^2 = 1.000
==== e(   6) =   -14.83055 eV ==== 
     psi = 0.495*[#  11]+0.495*[#  15]+0.003*[#  12]+0.003*[#  16]
    |psi|^2 = 0.997
==== e(   7) =    -6.73908 eV ==== 
     psi = 0.391*[#  12]+0.391*[#  16]+0.075*[#  10]+0.066*[#   7]+0.035*[#  11]
          +0.035*[#  15]+0.003*[#   1]
    |psi|^2 = 0.995
==== e(   8) =    -4.83559 eV ==== 
     psi = 0.541*[#   5]+0.167*[#  13]+0.167*[#  17]+0.055*[#  14]+0.055*[#  18]
          +0.004*[#   6]
    |psi|^2 = 0.991
==== e(   9) =    -4.83559 eV ==== 
     psi = 0.541*[#   6]+0.167*[#  14]+0.167*[#  18]+0.055*[#  13]+0.055*[#  17]
          +0.004*[#   5]
    |psi|^2 = 0.991
==== e(  10) =    -3.74111 eV ==== 
     psi = 0.494*[#  12]+0.494*[#  16]+0.003*[#  11]+0.003*[#  15]
    |psi|^2 = 0.995
==== e(  11) =    -3.25608 eV ==== 
     psi = 0.972*[#   8]+0.012*[#   9]
    |psi|^2 = 0.984
==== e(  12) =    -3.25608 eV ==== 
     psi = 0.972*[#   9]+0.012*[#   8]
    |psi|^2 = 0.984
==== e(  13) =    -3.00022 eV ==== 
     psi = 0.911*[#   7]+0.023*[#  10]+0.021*[#  12]+0.021*[#  16]+0.005*[#  11]
          +0.005*[#  15]
    |psi|^2 = 0.986
==== e(  14) =    -2.82999 eV ==== 
     psi = 0.369*[#  13]+0.369*[#  17]+0.123*[#  14]+0.123*[#  18]
    |psi|^2 = 0.985
==== e(  15) =    -2.82999 eV ==== 
     psi = 0.369*[#  14]+0.369*[#  18]+0.123*[#  13]+0.123*[#  17]
    |psi|^2 = 0.985
==== e(  16) =    -1.30614 eV ==== 
     psi = 0.443*[#   6]+0.206*[#  14]+0.206*[#  18]+0.070*[#  13]+0.070*[#  17]
          +0.003*[#   5]
    |psi|^2 = 0.998
==== e(  17) =    -1.30614 eV ==== 
     psi = 0.443*[#   5]+0.206*[#  13]+0.206*[#  17]+0.070*[#  14]+0.070*[#  18]
          +0.003*[#   6]
    |psi|^2 = 0.998
==== e(  18) =     1.84510 eV ==== 
     psi = 0.379*[#  10]+0.054*[#  11]+0.054*[#  15]+0.049*[#  12]+0.049*[#  16]
          +0.002*[#   7]
    |psi|^2 = 0.588
==== e(  19) =     2.57689 eV ==== 
     psi = 0.001*[#  11]+0.001*[#  15]
    |psi|^2 = 0.004
==== e(  20) =     2.72418 eV ==== 
 
    |psi|^2 = 0.000

Lowdin Charges: 

     Atom #   1: total charge =  17.6755, s =  2.7095, 
     Atom #   1: total charge =  17.6755, p =  5.9999, p1=  2.0000, p2=  2.0000, p3=  2.0000, 
     Atom #   1: total charge =  17.6755, d =  8.9661, d1=  1.5371, d2=  1.5371, d3=  1.9538, d4=  1.9690, d5=  1.9690, 
     Atom #   2: total charge =   7.0531, s =  1.8103, 
     Atom #   2: total charge =   7.0531, p =  5.2428, p1=  1.8305, p2=  1.7061, p3=  1.7061, 
     Atom #   2: total charge =   7.0531, d =  0.0000, d1=  0.0000, d2=  0.0000, d3=  0.0000, d4=  0.0000, d5=  0.0000, 
     Atom #   3: total charge =   7.0531, s =  1.8103, 
     Atom #   3: total charge =   7.0531, p =  5.2428, p1=  1.8305, p2=  1.7061, p3=  1.7061, 
     Atom #   3: total charge =   7.0531, d =  0.0000, d1=  0.0000, d2=  0.0000, d3=  0.0000, d4=  0.0000, d5=  0.0000, 
     Spilling Parameter:   0.0068
 
     PROJWFC      :      1.00s CPU      1.07s WALL

 
   This run was terminated on:  23:34: 7  26Jun2023            

=------------------------------------------------------------------------------=
   JOB DONE.
=------------------------------------------------------------------------------=
