
     Program PWSCF v.7.1 starts on 27Jun2023 at 15:29: 4 

     This program is part of the open-source Quantum ESPRESSO suite
     for quantum simulation of materials; please cite
         "P. Giannozzi et al., J. Phys.:Condens. Matter 21 395502 (2009);
         "P. Giannozzi et al., J. Phys.:Condens. Matter 29 465901 (2017);
         "P. Giannozzi et al., J. Chem. Phys. 152 154105 (2020);
          URL http://www.quantum-espresso.org", 
     in publications or presentations arising from this work. More details at
     http://www.quantum-espresso.org/quote

     Parallel version (MPI & OpenMP), running on      20 processor cores
     Number of MPI processes:                20
     Threads/MPI process:                     1

     MPI processes distributed on     1 nodes
     223786 MiB available memory on the printing compute node when the environment starts
 
     Reading input from input/nscf.in

     Current dimensions of program PWSCF are:
     Max number of different atomic species (ntypx) = 10
     Max number of k-points (npk) =  40000
     Max angular momentum in pseudopotentials (lmaxx) =  4

     Atomic positions and unit cell read from directory:
     ./tmp/csp.save/
     Atomic positions from file used, from input discarded
 
 
     R & G space division:  proc/nbgrp/npool/nimage =      20
     Subspace diagonalization in iterative solution of the eigenvalue problem:
     a serial algorithm will be used

 
     Parallelization info
     --------------------
     sticks:   dense  smooth     PW     G-vecs:    dense   smooth      PW
     Min          93      89     24                20481    19267    2790
     Max          94      90     25                20502    19300    2817
     Sum        1879    1789    499               409943   385631   56191
 
     Using Slab Decomposition
 


     bravais-lattice index     =            0
     lattice parameter (alat)  =       7.3605  a.u.
     unit-cell volume          =    2170.2486 (a.u.)^3
     number of atoms/cell      =            3
     number of atomic types    =            2
     number of electrons       =        32.00
     number of Kohn-Sham states=           20
     kinetic-energy cutoff     =     120.0000  Ry
     charge density cutoff     =     500.0000  Ry
     Exchange-correlation= PBE
                           (   1   4   3   4   0   0   0)

     celldm(1)=   7.360481  celldm(2)=   0.000000  celldm(3)=   0.000000
     celldm(4)=   0.000000  celldm(5)=   0.000000  celldm(6)=   0.000000

     crystal axes: (cart. coord. in units of alat)
               a(1) = (   1.000000   0.000000   0.000000 )  
               a(2) = (  -0.500000   0.866025   0.000000 )  
               a(3) = (   0.000000   0.000000   6.284350 )  

     reciprocal axes: (cart. coord. in units 2 pi/alat)
               b(1) = (  1.000000  0.577350  0.000000 )  
               b(2) = (  0.000000  1.154701  0.000000 )  
               b(3) = (  0.000000  0.000000  0.159125 )  


     PseudoPot. # 1 for Ni read from file:
     ../pseudo/Ni.upf
     MD5 check sum: 14a7e289c5fff9cacaba393040e62f02
     Pseudo is Norm-conserving + core correction, Zval = 18.0
     Generated using ONCVPSP code by D. R. Hamann
     Using radial grid of 1372 points,  6 beta functions with: 
                l(1) =   0
                l(2) =   0
                l(3) =   1
                l(4) =   1
                l(5) =   2
                l(6) =   2

     PseudoPot. # 2 for I  read from file:
     ../pseudo/I.upf
     MD5 check sum: 301f7009ca0a2b18b0adf53dca02d42f
     Pseudo is Norm-conserving + core correction, Zval =  7.0
     Generated using ONCVPSP code by D. R. Hamann
     Using radial grid of 1210 points,  6 beta functions with: 
                l(1) =   0
                l(2) =   0
                l(3) =   1
                l(4) =   1
                l(5) =   2
                l(6) =   2

     atomic species   valence    mass     pseudopotential
        Ni            18.00    58.69340     Ni( 1.00)
        I              7.00   126.90447     I ( 1.00)

     Starting magnetic structure 
     atomic species   magnetization
        Ni           0.278
        I            0.100

     No symmetry found


                                    s                        frac. trans.

      isym =  1     identity                                     

 cryst.   s( 1) = (     1          0          0      )
                  (     0          1          0      )
                  (     0          0          1      )

 cart.    s( 1) = (  1.0000000 -0.0000000  0.0000000 )
                  (  0.0000000  1.0000000  0.0000000 )
                  (  0.0000000  0.0000000  1.0000000 )


   Cartesian axes

     site n.     atom                  positions (alat units)
         1           Ni  tau(   1) = (   0.0000000   0.0000000   3.1421749  )
         2           I   tau(   2) = (  -0.0000000   0.5773503   3.5289144  )
         3           I   tau(   3) = (   0.5000000   0.2886751   2.7554354  )

   Crystallographic axes

     site n.     atom                  positions (cryst. coord.)
         1           Ni  tau(   1) = (  0.0000000  0.0000000  0.5000000  )
         2           I   tau(   2) = (  0.3333333  0.6666667  0.5615401  )
         3           I   tau(   3) = (  0.6666667  0.3333333  0.4384599  )

     number of k points=    61  Marzari-Vanderbilt smearing, width (Ry)=  0.0015
                       cart. coord. in units 2pi/alat
        k(    1) = (   0.0000000   0.0000000   0.0000000), wk =   0.0163934
        k(    2) = (   0.0166650   0.0288646   0.0000000), wk =   0.0163934
        k(    3) = (   0.0333300   0.0577293   0.0000000), wk =   0.0163934
        k(    4) = (   0.0499950   0.0865939   0.0000000), wk =   0.0163934
        k(    5) = (   0.0666600   0.1154585   0.0000000), wk =   0.0163934
        k(    6) = (   0.0833250   0.1443231   0.0000000), wk =   0.0163934
        k(    7) = (   0.0999900   0.1731878   0.0000000), wk =   0.0163934
        k(    8) = (   0.1166550   0.2020524   0.0000000), wk =   0.0163934
        k(    9) = (   0.1333200   0.2309170   0.0000000), wk =   0.0163934
        k(   10) = (   0.1499850   0.2597816   0.0000000), wk =   0.0163934
        k(   11) = (   0.1666500   0.2886463   0.0000000), wk =   0.0163934
        k(   12) = (   0.1833150   0.3175109   0.0000000), wk =   0.0163934
        k(   13) = (   0.1999800   0.3463755   0.0000000), wk =   0.0163934
        k(   14) = (   0.2166450   0.3752401   0.0000000), wk =   0.0163934
        k(   15) = (   0.2333100   0.4041048   0.0000000), wk =   0.0163934
        k(   16) = (   0.2499750   0.4329694   0.0000000), wk =   0.0163934
        k(   17) = (   0.2666400   0.4618340   0.0000000), wk =   0.0163934
        k(   18) = (   0.2833050   0.4906987   0.0000000), wk =   0.0163934
        k(   19) = (   0.2999700   0.5195633   0.0000000), wk =   0.0163934
        k(   20) = (   0.3166350   0.5484279   0.0000000), wk =   0.0163934
        k(   21) = (   0.3333000   0.5772925   0.0000000), wk =   0.0163934
        k(   22) = (   0.3416350   0.5628617   0.0000000), wk =   0.0163934
        k(   23) = (   0.3499700   0.5484308   0.0000000), wk =   0.0163934
        k(   24) = (   0.3583050   0.5339999   0.0000000), wk =   0.0163934
        k(   25) = (   0.3666400   0.5195691   0.0000000), wk =   0.0163934
        k(   26) = (   0.3749750   0.5051382   0.0000000), wk =   0.0163934
        k(   27) = (   0.3833100   0.4907073   0.0000000), wk =   0.0163934
        k(   28) = (   0.3916450   0.4762764   0.0000000), wk =   0.0163934
        k(   29) = (   0.3999800   0.4618456   0.0000000), wk =   0.0163934
        k(   30) = (   0.4083150   0.4474147   0.0000000), wk =   0.0163934
        k(   31) = (   0.4166500   0.4329838   0.0000000), wk =   0.0163934
        k(   32) = (   0.4249850   0.4185530   0.0000000), wk =   0.0163934
        k(   33) = (   0.4333200   0.4041221   0.0000000), wk =   0.0163934
        k(   34) = (   0.4416550   0.3896912   0.0000000), wk =   0.0163934
        k(   35) = (   0.4499900   0.3752604   0.0000000), wk =   0.0163934
        k(   36) = (   0.4583250   0.3608295   0.0000000), wk =   0.0163934
        k(   37) = (   0.4666600   0.3463986   0.0000000), wk =   0.0163934
        k(   38) = (   0.4749950   0.3319677   0.0000000), wk =   0.0163934
        k(   39) = (   0.4833300   0.3175369   0.0000000), wk =   0.0163934
        k(   40) = (   0.4916650   0.3031060   0.0000000), wk =   0.0163934
        k(   41) = (   0.5000000   0.2886751   0.0000000), wk =   0.0163934
        k(   42) = (   0.4750000   0.2742414   0.0000000), wk =   0.0163934
        k(   43) = (   0.4500000   0.2598076   0.0000000), wk =   0.0163934
        k(   44) = (   0.4250000   0.2453739   0.0000000), wk =   0.0163934
        k(   45) = (   0.4000000   0.2309401   0.0000000), wk =   0.0163934
        k(   46) = (   0.3750000   0.2165064   0.0000000), wk =   0.0163934
        k(   47) = (   0.3500000   0.2020726   0.0000000), wk =   0.0163934
        k(   48) = (   0.3250000   0.1876388   0.0000000), wk =   0.0163934
        k(   49) = (   0.3000000   0.1732051   0.0000000), wk =   0.0163934
        k(   50) = (   0.2750000   0.1587713   0.0000000), wk =   0.0163934
        k(   51) = (   0.2500000   0.1443376   0.0000000), wk =   0.0163934
        k(   52) = (   0.2250000   0.1299038   0.0000000), wk =   0.0163934
        k(   53) = (   0.2000000   0.1154701   0.0000000), wk =   0.0163934
        k(   54) = (   0.1750000   0.1010363   0.0000000), wk =   0.0163934
        k(   55) = (   0.1500000   0.0866025   0.0000000), wk =   0.0163934
        k(   56) = (   0.1250000   0.0721688   0.0000000), wk =   0.0163934
        k(   57) = (   0.1000000   0.0577350   0.0000000), wk =   0.0163934
        k(   58) = (   0.0750000   0.0433013   0.0000000), wk =   0.0163934
        k(   59) = (   0.0500000   0.0288675   0.0000000), wk =   0.0163934
        k(   60) = (   0.0250000   0.0144338   0.0000000), wk =   0.0163934
        k(   61) = (   0.0000000   0.0000000   0.0000000), wk =   0.0163934

                       cryst. coord.
        k(    1) = (   0.0000000   0.0000000   0.0000000), wk =   0.0163934
        k(    2) = (   0.0166650   0.0166650   0.0000000), wk =   0.0163934
        k(    3) = (   0.0333300   0.0333300   0.0000000), wk =   0.0163934
        k(    4) = (   0.0499950   0.0499950   0.0000000), wk =   0.0163934
        k(    5) = (   0.0666600   0.0666600   0.0000000), wk =   0.0163934
        k(    6) = (   0.0833250   0.0833250   0.0000000), wk =   0.0163934
        k(    7) = (   0.0999900   0.0999900   0.0000000), wk =   0.0163934
        k(    8) = (   0.1166550   0.1166550   0.0000000), wk =   0.0163934
        k(    9) = (   0.1333200   0.1333200   0.0000000), wk =   0.0163934
        k(   10) = (   0.1499850   0.1499850   0.0000000), wk =   0.0163934
        k(   11) = (   0.1666500   0.1666500   0.0000000), wk =   0.0163934
        k(   12) = (   0.1833150   0.1833150   0.0000000), wk =   0.0163934
        k(   13) = (   0.1999800   0.1999800   0.0000000), wk =   0.0163934
        k(   14) = (   0.2166450   0.2166450   0.0000000), wk =   0.0163934
        k(   15) = (   0.2333100   0.2333100   0.0000000), wk =   0.0163934
        k(   16) = (   0.2499750   0.2499750   0.0000000), wk =   0.0163934
        k(   17) = (   0.2666400   0.2666400   0.0000000), wk =   0.0163934
        k(   18) = (   0.2833050   0.2833050   0.0000000), wk =   0.0163934
        k(   19) = (   0.2999700   0.2999700   0.0000000), wk =   0.0163934
        k(   20) = (   0.3166350   0.3166350   0.0000000), wk =   0.0163934
        k(   21) = (   0.3333000   0.3333000   0.0000000), wk =   0.0163934
        k(   22) = (   0.3416350   0.3166350   0.0000000), wk =   0.0163934
        k(   23) = (   0.3499700   0.2999700   0.0000000), wk =   0.0163934
        k(   24) = (   0.3583050   0.2833050   0.0000000), wk =   0.0163934
        k(   25) = (   0.3666400   0.2666400   0.0000000), wk =   0.0163934
        k(   26) = (   0.3749750   0.2499750   0.0000000), wk =   0.0163934
        k(   27) = (   0.3833100   0.2333100   0.0000000), wk =   0.0163934
        k(   28) = (   0.3916450   0.2166450   0.0000000), wk =   0.0163934
        k(   29) = (   0.3999800   0.1999800   0.0000000), wk =   0.0163934
        k(   30) = (   0.4083150   0.1833150   0.0000000), wk =   0.0163934
        k(   31) = (   0.4166500   0.1666500   0.0000000), wk =   0.0163934
        k(   32) = (   0.4249850   0.1499850   0.0000000), wk =   0.0163934
        k(   33) = (   0.4333200   0.1333200   0.0000000), wk =   0.0163934
        k(   34) = (   0.4416550   0.1166550   0.0000000), wk =   0.0163934
        k(   35) = (   0.4499900   0.0999900   0.0000000), wk =   0.0163934
        k(   36) = (   0.4583250   0.0833250   0.0000000), wk =   0.0163934
        k(   37) = (   0.4666600   0.0666600   0.0000000), wk =   0.0163934
        k(   38) = (   0.4749950   0.0499950   0.0000000), wk =   0.0163934
        k(   39) = (   0.4833300   0.0333300   0.0000000), wk =   0.0163934
        k(   40) = (   0.4916650   0.0166650   0.0000000), wk =   0.0163934
        k(   41) = (   0.5000000  -0.0000000   0.0000000), wk =   0.0163934
        k(   42) = (   0.4750000  -0.0000000   0.0000000), wk =   0.0163934
        k(   43) = (   0.4500000   0.0000000   0.0000000), wk =   0.0163934
        k(   44) = (   0.4250000  -0.0000000   0.0000000), wk =   0.0163934
        k(   45) = (   0.4000000  -0.0000000   0.0000000), wk =   0.0163934
        k(   46) = (   0.3750000  -0.0000000   0.0000000), wk =   0.0163934
        k(   47) = (   0.3500000  -0.0000000   0.0000000), wk =   0.0163934
        k(   48) = (   0.3250000  -0.0000000   0.0000000), wk =   0.0163934
        k(   49) = (   0.3000000  -0.0000000   0.0000000), wk =   0.0163934
        k(   50) = (   0.2750000  -0.0000000   0.0000000), wk =   0.0163934
        k(   51) = (   0.2500000  -0.0000000   0.0000000), wk =   0.0163934
        k(   52) = (   0.2250000  -0.0000000   0.0000000), wk =   0.0163934
        k(   53) = (   0.2000000  -0.0000000   0.0000000), wk =   0.0163934
        k(   54) = (   0.1750000  -0.0000000   0.0000000), wk =   0.0163934
        k(   55) = (   0.1500000  -0.0000000   0.0000000), wk =   0.0163934
        k(   56) = (   0.1250000  -0.0000000   0.0000000), wk =   0.0163934
        k(   57) = (   0.1000000  -0.0000000   0.0000000), wk =   0.0163934
        k(   58) = (   0.0750000  -0.0000000   0.0000000), wk =   0.0163934
        k(   59) = (   0.0500000  -0.0000000   0.0000000), wk =   0.0163934
        k(   60) = (   0.0250000   0.0000000   0.0000000), wk =   0.0163934
        k(   61) = (   0.0000000   0.0000000   0.0000000), wk =   0.0163934

     Dense  grid:   409943 G-vectors     FFT dimensions: (  54,  54, 360)

     Smooth grid:   385631 G-vectors     FFT dimensions: (  54,  54, 324)

     Dynamical RAM for                 wfc:       0.73 MB

     Dynamical RAM for     wfc (w. buffer):       0.73 MB

     Dynamical RAM for           str. fact:       0.63 MB

     Dynamical RAM for           local pot:       0.00 MB

     Dynamical RAM for          nlocal pot:       1.98 MB

     Dynamical RAM for                qrad:       3.59 MB

     Dynamical RAM for          rho,v,vnew:       4.28 MB

     Dynamical RAM for           G-vectors:       1.32 MB

     Dynamical RAM for          h,s,v(r/c):       0.07 MB

     Dynamical RAM for          <psi|beta>:       0.02 MB

     Dynamical RAM for                 psi:       1.47 MB

     Dynamical RAM for                hpsi:       1.47 MB

     Dynamical RAM for      wfcinit/wfcrot:       1.48 MB

     Estimated static dynamical RAM per process >      15.87 MB

     Estimated max dynamical RAM per process >      18.90 MB

     Estimated total dynamical RAM >     378.07 MB
     Generating pointlists ...
     new r_m :   0.2867 (alat units)  2.1099 (a.u.) for type    1
     new r_m :   0.2867 (alat units)  2.1099 (a.u.) for type    2

     The potential is recalculated from file :
     ./tmp/csp.save/charge-density

     Starting wfcs are   18 randomized atomic wfcs +    2 random wfcs

     Band Structure Calculation
     Davidson diagonalization with overlap

     Computing kpt #:     1  of   122
     total cpu time spent up to now is        1.6 secs

     Computing kpt #:     2  of   122
     total cpu time spent up to now is        2.0 secs

     Computing kpt #:     3  of   122
     total cpu time spent up to now is        2.3 secs

     Computing kpt #:     4  of   122
     total cpu time spent up to now is        2.7 secs

     Computing kpt #:     5  of   122
     total cpu time spent up to now is        3.3 secs

     Computing kpt #:     6  of   122
     total cpu time spent up to now is        3.6 secs

     Computing kpt #:     7  of   122
     total cpu time spent up to now is        4.0 secs

     Computing kpt #:     8  of   122
     total cpu time spent up to now is        4.4 secs

     Computing kpt #:     9  of   122
     total cpu time spent up to now is        4.7 secs

     Computing kpt #:    10  of   122
     total cpu time spent up to now is        5.1 secs

     Computing kpt #:    11  of   122
     total cpu time spent up to now is        5.4 secs

     Computing kpt #:    12  of   122
     total cpu time spent up to now is        5.8 secs

     Computing kpt #:    13  of   122
     total cpu time spent up to now is        6.1 secs

     Computing kpt #:    14  of   122
     total cpu time spent up to now is        6.5 secs

     Computing kpt #:    15  of   122
     total cpu time spent up to now is        6.8 secs

     Computing kpt #:    16  of   122
     total cpu time spent up to now is        7.2 secs

     Computing kpt #:    17  of   122
     total cpu time spent up to now is        7.6 secs

     Computing kpt #:    18  of   122
     total cpu time spent up to now is        7.9 secs

     Computing kpt #:    19  of   122
     total cpu time spent up to now is        8.3 secs

     Computing kpt #:    20  of   122
     total cpu time spent up to now is        8.6 secs

     Computing kpt #:    21  of   122
     total cpu time spent up to now is        8.9 secs

     Computing kpt #:    22  of   122
     total cpu time spent up to now is        9.2 secs

     Computing kpt #:    23  of   122
     total cpu time spent up to now is        9.6 secs

     Computing kpt #:    24  of   122
     total cpu time spent up to now is        9.9 secs

     Computing kpt #:    25  of   122
     total cpu time spent up to now is       10.3 secs

     Computing kpt #:    26  of   122
     total cpu time spent up to now is       10.6 secs

     Computing kpt #:    27  of   122
     total cpu time spent up to now is       11.0 secs

     Computing kpt #:    28  of   122
     total cpu time spent up to now is       11.3 secs

     Computing kpt #:    29  of   122
     total cpu time spent up to now is       11.7 secs

     Computing kpt #:    30  of   122
     total cpu time spent up to now is       12.1 secs

     Computing kpt #:    31  of   122
     total cpu time spent up to now is       12.5 secs

     Computing kpt #:    32  of   122
     total cpu time spent up to now is       12.9 secs

     Computing kpt #:    33  of   122
     total cpu time spent up to now is       13.3 secs

     Computing kpt #:    34  of   122
     total cpu time spent up to now is       13.7 secs

     Computing kpt #:    35  of   122
     total cpu time spent up to now is       14.0 secs

     Computing kpt #:    36  of   122
     total cpu time spent up to now is       14.4 secs

     Computing kpt #:    37  of   122
     total cpu time spent up to now is       14.7 secs

     Computing kpt #:    38  of   122
     total cpu time spent up to now is       15.0 secs

     Computing kpt #:    39  of   122
     total cpu time spent up to now is       15.3 secs

     Computing kpt #:    40  of   122
     total cpu time spent up to now is       15.6 secs

     Computing kpt #:    41  of   122
     total cpu time spent up to now is       15.9 secs

     Computing kpt #:    42  of   122
     total cpu time spent up to now is       16.2 secs

     Computing kpt #:    43  of   122
     total cpu time spent up to now is       16.5 secs

     Computing kpt #:    44  of   122
     total cpu time spent up to now is       16.8 secs

     Computing kpt #:    45  of   122
     total cpu time spent up to now is       17.1 secs

     Computing kpt #:    46  of   122
     total cpu time spent up to now is       17.4 secs

     Computing kpt #:    47  of   122
     total cpu time spent up to now is       17.7 secs

     Computing kpt #:    48  of   122
     total cpu time spent up to now is       18.1 secs

     Computing kpt #:    49  of   122
     total cpu time spent up to now is       18.4 secs

     Computing kpt #:    50  of   122
     total cpu time spent up to now is       18.8 secs

     Computing kpt #:    51  of   122
     total cpu time spent up to now is       19.1 secs

     Computing kpt #:    52  of   122
     total cpu time spent up to now is       19.5 secs

     Computing kpt #:    53  of   122
     total cpu time spent up to now is       19.8 secs

     Computing kpt #:    54  of   122
     total cpu time spent up to now is       20.2 secs

     Computing kpt #:    55  of   122
     total cpu time spent up to now is       20.6 secs

     Computing kpt #:    56  of   122
     total cpu time spent up to now is       21.0 secs

     Computing kpt #:    57  of   122
     total cpu time spent up to now is       21.4 secs

     Computing kpt #:    58  of   122
     total cpu time spent up to now is       21.8 secs

     Computing kpt #:    59  of   122
     total cpu time spent up to now is       22.2 secs

     Computing kpt #:    60  of   122
     total cpu time spent up to now is       22.5 secs

     Computing kpt #:    61  of   122
     total cpu time spent up to now is       22.9 secs

     Computing kpt #:    62  of   122
     total cpu time spent up to now is       23.3 secs

     Computing kpt #:    63  of   122
     total cpu time spent up to now is       23.6 secs

     Computing kpt #:    64  of   122
     total cpu time spent up to now is       24.0 secs

     Computing kpt #:    65  of   122
     total cpu time spent up to now is       24.4 secs

     Computing kpt #:    66  of   122
     total cpu time spent up to now is       25.0 secs

     Computing kpt #:    67  of   122
     total cpu time spent up to now is       25.4 secs

     Computing kpt #:    68  of   122
     total cpu time spent up to now is       25.8 secs

     Computing kpt #:    69  of   122
     total cpu time spent up to now is       26.2 secs

     Computing kpt #:    70  of   122
     total cpu time spent up to now is       26.6 secs

     Computing kpt #:    71  of   122
     total cpu time spent up to now is       27.0 secs

     Computing kpt #:    72  of   122
     total cpu time spent up to now is       27.3 secs

     Computing kpt #:    73  of   122
     total cpu time spent up to now is       27.7 secs

     Computing kpt #:    74  of   122
     total cpu time spent up to now is       28.1 secs

     Computing kpt #:    75  of   122
     total cpu time spent up to now is       28.4 secs

     Computing kpt #:    76  of   122
     total cpu time spent up to now is       28.8 secs

     Computing kpt #:    77  of   122
     total cpu time spent up to now is       29.2 secs

     Computing kpt #:    78  of   122
     total cpu time spent up to now is       29.5 secs

     Computing kpt #:    79  of   122
     total cpu time spent up to now is       29.9 secs

     Computing kpt #:    80  of   122
     total cpu time spent up to now is       30.2 secs

     Computing kpt #:    81  of   122
     total cpu time spent up to now is       30.6 secs

     Computing kpt #:    82  of   122
     total cpu time spent up to now is       30.9 secs

     Computing kpt #:    83  of   122
     total cpu time spent up to now is       31.3 secs

     Computing kpt #:    84  of   122
     total cpu time spent up to now is       31.6 secs

     Computing kpt #:    85  of   122
     total cpu time spent up to now is       32.0 secs

     Computing kpt #:    86  of   122
     total cpu time spent up to now is       32.3 secs

     Computing kpt #:    87  of   122
     total cpu time spent up to now is       32.7 secs

     Computing kpt #:    88  of   122
     total cpu time spent up to now is       33.0 secs

     Computing kpt #:    89  of   122
     total cpu time spent up to now is       33.4 secs

     Computing kpt #:    90  of   122
     total cpu time spent up to now is       33.8 secs

     Computing kpt #:    91  of   122
     total cpu time spent up to now is       34.2 secs

     Computing kpt #:    92  of   122
     total cpu time spent up to now is       34.7 secs

     Computing kpt #:    93  of   122
     total cpu time spent up to now is       35.1 secs

     Computing kpt #:    94  of   122
     total cpu time spent up to now is       35.5 secs

     Computing kpt #:    95  of   122
     total cpu time spent up to now is       35.9 secs

     Computing kpt #:    96  of   122
     total cpu time spent up to now is       36.3 secs

     Computing kpt #:    97  of   122
     total cpu time spent up to now is       36.6 secs

     Computing kpt #:    98  of   122
     total cpu time spent up to now is       37.0 secs

     Computing kpt #:    99  of   122
     total cpu time spent up to now is       37.3 secs

     Computing kpt #:   100  of   122
     total cpu time spent up to now is       37.7 secs

     Computing kpt #:   101  of   122
     total cpu time spent up to now is       38.0 secs

     Computing kpt #:   102  of   122
     total cpu time spent up to now is       38.3 secs

     Computing kpt #:   103  of   122
     total cpu time spent up to now is       38.7 secs

     Computing kpt #:   104  of   122
     total cpu time spent up to now is       39.0 secs

     Computing kpt #:   105  of   122
     total cpu time spent up to now is       39.4 secs

     Computing kpt #:   106  of   122
     total cpu time spent up to now is       39.8 secs

     Computing kpt #:   107  of   122
     total cpu time spent up to now is       40.1 secs

     Computing kpt #:   108  of   122
     total cpu time spent up to now is       40.5 secs

     Computing kpt #:   109  of   122
     total cpu time spent up to now is       40.8 secs

     Computing kpt #:   110  of   122
     total cpu time spent up to now is       41.2 secs

     Computing kpt #:   111  of   122
     total cpu time spent up to now is       41.6 secs

     Computing kpt #:   112  of   122
     total cpu time spent up to now is       41.9 secs

     Computing kpt #:   113  of   122
     total cpu time spent up to now is       42.3 secs

     Computing kpt #:   114  of   122
     total cpu time spent up to now is       42.7 secs

     Computing kpt #:   115  of   122
     total cpu time spent up to now is       43.0 secs

     Computing kpt #:   116  of   122
     total cpu time spent up to now is       43.4 secs

     Computing kpt #:   117  of   122
     total cpu time spent up to now is       43.8 secs

     Computing kpt #:   118  of   122
     total cpu time spent up to now is       44.3 secs

     Computing kpt #:   119  of   122
     total cpu time spent up to now is       44.7 secs

     Computing kpt #:   120  of   122
     total cpu time spent up to now is       45.1 secs

     Computing kpt #:   121  of   122
     total cpu time spent up to now is       45.5 secs

     Computing kpt #:   122  of   122
     total cpu time spent up to now is       45.9 secs

     ethr =  3.12E-09,  avg # of iterations = 33.2

     total cpu time spent up to now is       45.9 secs

     End of band structure calculation

 ------ SPIN UP ------------


          k = 0.0000 0.0000 0.0000 ( 48107 PWs)   bands (ev):

  -106.0021 -66.4758 -66.4223 -66.4223 -15.7961 -14.8538  -6.8631  -5.8198
    -5.8198  -4.2877  -4.2877  -3.9217  -3.7919  -2.8819  -2.8819  -1.9863
    -1.9863   1.7661   2.5039   2.6845

     occupation numbers 
     1.0000   1.0000   1.0000   1.0000   1.0000   1.0000   1.0000   1.0000
     1.0000   1.0000   1.0000   1.0000   1.0000   1.0000   1.0000   1.0000
     1.0000   0.0000   0.0000   0.0000

          k = 0.0167 0.0289 0.0000 ( 48103 PWs)   bands (ev):

  -106.0021 -66.4758 -66.4223 -66.4223 -15.7896 -14.8502  -6.8564  -5.8284
    -5.8191  -4.2966  -4.2918  -3.9306  -3.7804  -2.9190  -2.8900  -2.0253
    -1.9925   1.7992   2.5561   2.6937

     occupation numbers 
     1.0000   1.0000   1.0000   1.0000   1.0000   1.0000   1.0000   1.0000
     1.0000   1.0000   1.0000   1.0000   1.0000   1.0000   1.0000   1.0000
     1.0000   0.0000   0.0000   0.0000

          k = 0.0333 0.0577 0.0000 ( 48127 PWs)   bands (ev):

  -106.0021 -66.4758 -66.4224 -66.4223 -15.7702 -14.8395  -6.8364  -5.8533
    -5.8171  -4.3232  -4.3066  -3.9576  -3.7476  -3.0180  -2.9160  -2.1314
    -2.0141   1.8917   2.6872   2.7350

     occupation numbers 
     1.0000   1.0000   1.0000   1.0000   1.0000   1.0000   1.0000   1.0000
     1.0000   1.0000   1.0000   1.0000   1.0000   1.0000   1.0000   1.0000
     1.0000   0.0000   0.0000   0.0000

          k = 0.0500 0.0866 0.0000 ( 48139 PWs)   bands (ev):

  -106.0021 -66.4758 -66.4224 -66.4223 -15.7381 -14.8221  -6.8039  -5.8925
    -5.8143  -4.3675  -4.3420  -4.0011  -3.6978  -3.1491  -2.9661  -2.2762
    -2.0568   2.0270   2.7499   2.9261

     occupation numbers 
     1.0000   1.0000   1.0000   1.0000   1.0000   1.0000   1.0000   1.0000
     1.0000   1.0000   1.0000   1.0000   1.0000   1.0000   1.0000   1.0000
     1.0000   0.0000   0.0000   0.0000

          k = 0.0667 0.1155 0.0000 ( 48115 PWs)   bands (ev):

  -106.0021 -66.4758 -66.4224 -66.4224 -15.6939 -14.7985  -6.7602  -5.9429
    -5.8116  -4.4299  -4.4184  -4.0500  -3.6377  -3.2793  -3.0502  -2.4225
    -2.1237   2.1866   2.8045   3.1590

     occupation numbers 
     1.0000   1.0000   1.0000   1.0000   1.0000   1.0000   1.0000   1.0000
     1.0000   1.0000   1.0000   1.0000   1.0000   1.0000   1.0000   1.0000
     1.0000   0.0000   0.0000   0.0000

          k = 0.0833 0.1443 0.0000 ( 48105 PWs)   bands (ev):

  -106.0021 -66.4758 -66.4224 -66.4224 -15.6382 -14.7694  -6.7075  -6.0014
    -5.8100  -4.5544  -4.5112  -4.0860  -3.5769  -3.3871  -3.1731  -2.5387
    -2.2142   2.3563   2.8685   3.0850

     occupation numbers 
     1.0000   1.0000   1.0000   1.0000   1.0000   1.0000   1.0000   1.0000
     1.0000   1.0000   1.0000   1.0000   1.0000   1.0000   1.0000   1.0000
     1.0000   0.0000   0.0000   0.0000

          k = 0.1000 0.1732 0.0000 ( 48137 PWs)   bands (ev):

  -106.0021 -66.4758 -66.4225 -66.4224 -15.5718 -14.7357  -6.6494  -6.0649
    -5.8115  -4.7417  -4.6117  -4.1034  -3.5363  -3.4695  -3.3135  -2.6134
    -2.3251   2.5251   2.9386   2.9653

     occupation numbers 
     1.0000   1.0000   1.0000   1.0000   1.0000   1.0000   1.0000   1.0000
     1.0000   1.0000   1.0000   1.0000   1.0000   1.0000   1.0000   1.0000
     1.0000   0.0000   0.0000   0.0000

          k = 0.1167 0.2021 0.0000 ( 48129 PWs)   bands (ev):

  -106.0021 -66.4757 -66.4225 -66.4224 -15.4960 -14.6986  -6.5918  -6.1306
    -5.8181  -4.9509  -4.7302  -4.1078  -3.5876  -3.5344  -3.3888  -2.6512
    -2.4506   2.6538   2.8827   3.0090

     occupation numbers 
     1.0000   1.0000   1.0000   1.0000   1.0000   1.0000   1.0000   1.0000
     1.0000   1.0000   1.0000   1.0000   1.0000   1.0000   1.0000   1.0000
     1.0000   0.0000   0.0000   0.0000

          k = 0.1333 0.2309 0.0000 ( 48147 PWs)   bands (ev):

  -106.0021 -66.4757 -66.4225 -66.4224 -15.4119 -14.6594  -6.5451  -6.1960
    -5.8313  -5.1514  -4.8630  -4.1043  -3.7327  -3.5920  -3.3897  -2.6588
    -2.5832   2.6206   2.9796   3.0724

     occupation numbers 
     1.0000   1.0000   1.0000   1.0000   1.0000   1.0000   1.0000   1.0000
     1.0000   1.0000   1.0000   1.0000   1.0000   1.0000   1.0000   1.0000
     1.0000   0.0000   0.0000   0.0000

          k = 0.1500 0.2598 0.0000 ( 48139 PWs)   bands (ev):

  -106.0021 -66.4757 -66.4226 -66.4224 -15.3213 -14.6196  -6.5260  -6.2586
    -5.8484  -5.3180  -5.0037  -4.0958  -3.8899  -3.6506  -3.3952  -2.7133
    -2.6426   2.5208   3.1217   3.1676

     occupation numbers 
     1.0000   1.0000   1.0000   1.0000   1.0000   1.0000   1.0000   1.0000
     1.0000   1.0000   1.0000   1.0000   1.0000   1.0000   1.0000   1.0000
     1.0000   0.0000   0.0000   0.0000

          k = 0.1666 0.2886 0.0000 ( 48163 PWs)   bands (ev):

  -106.0021 -66.4757 -66.4226 -66.4224 -15.2259 -14.5807  -6.5537  -6.3164
    -5.8590  -5.4365  -5.1445  -4.0838  -4.0428  -3.7155  -3.4189  -2.8313
    -2.6116   2.4219   3.1540   3.3807

     occupation numbers 
     1.0000   1.0000   1.0000   1.0000   1.0000   1.0000   1.0000   1.0000
     1.0000   1.0000   1.0000   1.0000   1.0000   1.0000   1.0000   1.0000
     1.0000   0.0000   0.0000   0.0000

          k = 0.1833 0.3175 0.0000 ( 48159 PWs)   bands (ev):

  -106.0021 -66.4757 -66.4227 -66.4225 -15.1280 -14.5443  -6.6326  -6.3671
    -5.8553  -5.5091  -5.2776  -4.1913  -4.0689  -3.7877  -3.4573  -2.9289
    -2.5769   2.3302   3.1740   3.6107

     occupation numbers 
     1.0000   1.0000   1.0000   1.0000   1.0000   1.0000   1.0000   1.0000
     1.0000   1.0000   1.0000   1.0000   1.0000   1.0000   1.0000   1.0000
     1.0000   0.0000   0.0000   0.0000

          k = 0.2000 0.3464 0.0000 ( 48131 PWs)   bands (ev):

  -106.0021 -66.4757 -66.4227 -66.4225 -15.0296 -14.5119  -6.7436  -6.4088
    -5.8502  -5.5438  -5.3967  -4.3374  -4.0519  -3.8628  -3.5039  -3.0021
    -2.5486   2.2448   3.1927   3.8560

     occupation numbers 
     1.0000   1.0000   1.0000   1.0000   1.0000   1.0000   1.0000   1.0000
     1.0000   1.0000   1.0000   1.0000   1.0000   1.0000   1.0000   1.0000
     1.0000   0.0000   0.0000   0.0000

          k = 0.2166 0.3752 0.0000 ( 48159 PWs)   bands (ev):

  -106.0021 -66.4757 -66.4227 -66.4225 -14.9334 -14.4848  -6.8607  -6.4397
    -5.8682  -5.5450  -5.4969  -4.4828  -4.0346  -3.9305  -3.5534  -3.0509
    -2.5344   2.1647   3.2238   4.1147

     occupation numbers 
     1.0000   1.0000   1.0000   1.0000   1.0000   1.0000   1.0000   1.0000
     1.0000   1.0000   1.0000   1.0000   1.0000   1.0000   1.0000   1.0000
     1.0000   0.0000   0.0000   0.0000

          k = 0.2333 0.4041 0.0000 ( 48177 PWs)   bands (ev):

  -106.0021 -66.4757 -66.4227 -66.4225 -14.8419 -14.4643  -6.9649  -6.4590
    -5.9201  -5.5745  -5.5236  -4.6280  -4.0305  -3.9682  -3.6019  -3.0778
    -2.5388   2.0903   3.2790   4.3814

     occupation numbers 
     1.0000   1.0000   1.0000   1.0000   1.0000   1.0000   1.0000   1.0000
     1.0000   1.0000   1.0000   1.0000   1.0000   1.0000   1.0000   1.0000
     1.0000   0.0000   0.0000   0.0000

          k = 0.2500 0.4330 0.0000 ( 48187 PWs)   bands (ev):

  -106.0021 -66.4757 -66.4227 -66.4225 -14.7573 -14.4512  -7.0447  -6.4671
    -6.0011  -5.6264  -5.4957  -4.7724  -4.0548  -3.9554  -3.6471  -3.0855
    -2.5636   2.0237   3.3662   4.6338

     occupation numbers 
     1.0000   1.0000   1.0000   1.0000   1.0000   1.0000   1.0000   1.0000
     1.0000   1.0000   1.0000   1.0000   1.0000   1.0000   1.0000   1.0000
     1.0000   0.0000   0.0000   0.0000

          k = 0.2666 0.4618 0.0000 ( 48211 PWs)   bands (ev):

  -106.0021 -66.4757 -66.4227 -66.4226 -14.6818 -14.4457  -7.0940  -6.4662
    -6.1022  -5.6497  -5.4724  -4.9144  -4.0764  -3.9241  -3.6875  -3.0754
    -2.6079   1.9678   3.4880   4.7329

     occupation numbers 
     1.0000   1.0000   1.0000   1.0000   1.0000   1.0000   1.0000   1.0000
     1.0000   1.0000   1.0000   1.0000   1.0000   1.0000   1.0000   1.0000
     1.0000   0.0000   0.0000   0.0000

          k = 0.2833 0.4907 0.0000 ( 48211 PWs)   bands (ev):

  -106.0021 -66.4757 -66.4227 -66.4226 -14.6171 -14.4480  -7.1108  -6.4598
    -6.2137  -5.6419  -5.4576  -5.0520  -4.0879  -3.8880  -3.7224  -3.0488
    -2.6686   1.9256   3.6418   4.6037

     occupation numbers 
     1.0000   1.0000   1.0000   1.0000   1.0000   1.0000   1.0000   1.0000
     1.0000   1.0000   1.0000   1.0000   1.0000   1.0000   1.0000   1.0000
     1.0000   0.0000   0.0000   0.0000

          k = 0.3000 0.5196 0.0000 ( 48217 PWs)   bands (ev):

  -106.0021 -66.4757 -66.4227 -66.4226 -14.5642 -14.4575  -7.0987  -6.4524
    -6.3233  -5.6015  -5.4516  -5.1823  -4.0924  -3.8523  -3.7519  -3.0068
    -2.7404   1.8987   3.8185   4.4365

     occupation numbers 
     1.0000   1.0000   1.0000   1.0000   1.0000   1.0000   1.0000   1.0000
     1.0000   1.0000   1.0000   1.0000   1.0000   1.0000   1.0000   1.0000
     1.0000   0.0000   0.0000   0.0000

          k = 0.3166 0.5484 0.0000 ( 48229 PWs)   bands (ev):

  -106.0021 -66.4757 -66.4227 -66.4227 -14.5235 -14.4734  -7.0703  -6.4476
    -6.4118  -5.5311  -5.4531  -5.3011  -4.0935  -3.8211  -3.7763  -2.9519
    -2.8164   1.8865   3.9988   4.2798

     occupation numbers 
     1.0000   1.0000   1.0000   1.0000   1.0000   1.0000   1.0000   1.0000
     1.0000   1.0000   1.0000   1.0000   1.0000   1.0000   1.0000   1.0000
     1.0000   0.0000   0.0000   0.0000

          k = 0.3333 0.5773 0.0000 ( 48189 PWs)   bands (ev):

  -106.0021 -66.4757 -66.4227 -66.4227 -14.4946 -14.4945  -7.0528  -6.4478
    -6.4478  -5.4603  -5.4603  -5.3808  -4.0935  -3.7972  -3.7972  -2.8884
    -2.8881   1.8843   4.1471   4.1475

     occupation numbers 
     1.0000   1.0000   1.0000   1.0000   1.0000   1.0000   1.0000   1.0000
     1.0000   1.0000   1.0000   1.0000   1.0000   1.0000   1.0000   1.0000
     1.0000   0.0000   0.0000   0.0000

          k = 0.3416 0.5629 0.0000 ( 48219 PWs)   bands (ev):

  -106.0021 -66.4757 -66.4227 -66.4227 -14.5067 -14.4842  -7.0588  -6.4501
    -6.4348  -5.4822  -5.4656  -5.3500  -4.0936  -3.8070  -3.7884  -2.9193
    -2.8548   1.8841   4.0938   4.1948

     occupation numbers 
     1.0000   1.0000   1.0000   1.0000   1.0000   1.0000   1.0000   1.0000
     1.0000   1.0000   1.0000   1.0000   1.0000   1.0000   1.0000   1.0000
     1.0000   0.0000   0.0000   0.0000

          k = 0.3500 0.5484 0.0000 ( 48221 PWs)   bands (ev):

  -106.0021 -66.4757 -66.4227 -66.4227 -14.5196 -14.4764  -7.0771  -6.4540
    -6.3986  -5.5222  -5.4716  -5.2934  -4.0938  -3.8168  -3.7818  -2.9452
    -2.8212   1.8822   4.0507   4.2190

     occupation numbers 
     1.0000   1.0000   1.0000   1.0000   1.0000   1.0000   1.0000   1.0000
     1.0000   1.0000   1.0000   1.0000   1.0000   1.0000   1.0000   1.0000
     1.0000   0.0000   0.0000   0.0000

          k = 0.3583 0.5340 0.0000 ( 48227 PWs)   bands (ev):

  -106.0021 -66.4757 -66.4227 -66.4226 -14.5331 -14.4709  -7.1061  -6.4593
    -6.3412  -5.5620  -5.4783  -5.2305  -4.0943  -3.8273  -3.7773  -2.9642
    -2.7880   1.8765   4.0196   4.2203

     occupation numbers 
     1.0000   1.0000   1.0000   1.0000   1.0000   1.0000   1.0000   1.0000
     1.0000   1.0000   1.0000   1.0000   1.0000   1.0000   1.0000   1.0000
     1.0000   0.0000   0.0000   0.0000

          k = 0.3666 0.5196 0.0000 ( 48227 PWs)   bands (ev):

  -106.0021 -66.4757 -66.4227 -66.4226 -14.5470 -14.4674  -7.1425  -6.4661
    -6.2659  -5.5988  -5.4854  -5.1654  -4.0950  -3.8389  -3.7749  -2.9749
    -2.7557   1.8647   4.0022   4.2024

     occupation numbers 
     1.0000   1.0000   1.0000   1.0000   1.0000   1.0000   1.0000   1.0000
     1.0000   1.0000   1.0000   1.0000   1.0000   1.0000   1.0000   1.0000
     1.0000   0.0000   0.0000   0.0000

          k = 0.3750 0.5051 0.0000 ( 48231 PWs)   bands (ev):

  -106.0021 -66.4757 -66.4227 -66.4226 -14.5611 -14.4658  -7.1835  -6.4742
    -6.1760  -5.6318  -5.4928  -5.1004  -4.0962  -3.8521  -3.7747  -2.9757
    -2.7250   1.8443   4.0000   4.1703

     occupation numbers 
     1.0000   1.0000   1.0000   1.0000   1.0000   1.0000   1.0000   1.0000
     1.0000   1.0000   1.0000   1.0000   1.0000   1.0000   1.0000   1.0000
     1.0000   0.0000   0.0000   0.0000

          k = 0.3833 0.4907 0.0000 ( 48209 PWs)   bands (ev):

  -106.0021 -66.4757 -66.4227 -66.4226 -14.5753 -14.4657  -7.2266  -6.4837
    -6.0747  -5.6608  -5.5001  -5.0370  -4.0977  -3.8671  -3.7764  -2.9656
    -2.6962   1.8130   4.0143   4.1284

     occupation numbers 
     1.0000   1.0000   1.0000   1.0000   1.0000   1.0000   1.0000   1.0000
     1.0000   1.0000   1.0000   1.0000   1.0000   1.0000   1.0000   1.0000
     1.0000   0.0000   0.0000   0.0000

          k = 0.3916 0.4763 0.0000 ( 48181 PWs)   bands (ev):

  -106.0021 -66.4757 -66.4228 -66.4226 -14.5893 -14.4670  -7.2702  -6.4942
    -5.9645  -5.6856  -5.5071  -4.9767  -4.0997  -3.8842  -3.7803  -2.9437
    -2.6695   1.7693   4.0460   4.0799

     occupation numbers 
     1.0000   1.0000   1.0000   1.0000   1.0000   1.0000   1.0000   1.0000
     1.0000   1.0000   1.0000   1.0000   1.0000   1.0000   1.0000   1.0000
     1.0000   0.0000   0.0000   0.0000

          k = 0.4000 0.4618 0.0000 ( 48181 PWs)   bands (ev):

  -106.0021 -66.4757 -66.4228 -66.4226 -14.6030 -14.4693  -7.3129  -6.5057
    -5.8478  -5.7066  -5.5130  -4.9208  -4.1023  -3.9029  -3.7863  -2.9099
    -2.6453   1.7123   4.0264   4.0953

     occupation numbers 
     1.0000   1.0000   1.0000   1.0000   1.0000   1.0000   1.0000   1.0000
     1.0000   1.0000   1.0000   1.0000   1.0000   1.0000   1.0000   1.0000
     1.0000   0.0000   0.0000   0.0000

          k = 0.4083 0.4474 0.0000 ( 48161 PWs)   bands (ev):

  -106.0021 -66.4757 -66.4228 -66.4225 -14.6162 -14.4725  -7.3540  -6.5177
    -5.7283  -5.7238  -5.5158  -4.8700  -4.1055  -3.9231  -3.7945  -2.8648
    -2.6237   1.6424   3.9681   4.1618

     occupation numbers 
     1.0000   1.0000   1.0000   1.0000   1.0000   1.0000   1.0000   1.0000
     1.0000   1.0000   1.0000   1.0000   1.0000   1.0000   1.0000   1.0000
     1.0000   0.0000   0.0000   0.0000

          k = 0.4166 0.4330 0.0000 ( 48198 PWs)   bands (ev):

  -106.0021 -66.4757 -66.4228 -66.4225 -14.6288 -14.4762  -7.3928  -6.5301
    -5.7376  -5.6185  -5.5045  -4.8251  -4.1097  -3.9439  -3.8049  -2.8095
    -2.6048   1.5608   3.9025   4.2444

     occupation numbers 
     1.0000   1.0000   1.0000   1.0000   1.0000   1.0000   1.0000   1.0000
     1.0000   1.0000   1.0000   1.0000   1.0000   1.0000   1.0000   1.0000
     1.0000   0.0000   0.0000   0.0000

          k = 0.4250 0.4186 0.0000 ( 48190 PWs)   bands (ev):

  -106.0021 -66.4757 -66.4228 -66.4225 -14.6407 -14.4803  -7.4288  -6.5425
    -5.7483  -5.5675  -5.4315  -4.7863  -4.1151  -3.9648  -3.8176  -2.7459
    -2.5885   1.4700   3.8242   4.1807

     occupation numbers 
     1.0000   1.0000   1.0000   1.0000   1.0000   1.0000   1.0000   1.0000
     1.0000   1.0000   1.0000   1.0000   1.0000   1.0000   1.0000   1.0000
     1.0000   0.0000   0.0000   0.0000

          k = 0.4333 0.4041 0.0000 ( 48210 PWs)   bands (ev):

  -106.0021 -66.4757 -66.4228 -66.4225 -14.6516 -14.4845  -7.4617  -6.5546
    -5.7564  -5.5619  -5.3116  -4.7535  -4.1222  -3.9850  -3.8325  -2.6763
    -2.5749   1.3734   3.7247   4.0670

     occupation numbers 
     1.0000   1.0000   1.0000   1.0000   1.0000   1.0000   1.0000   1.0000
     1.0000   1.0000   1.0000   1.0000   1.0000   1.0000   1.0000   1.0000
     1.0000   0.0000   0.0000   0.0000

          k = 0.4417 0.3897 0.0000 ( 48232 PWs)   bands (ev):

  -106.0021 -66.4757 -66.4228 -66.4225 -14.6616 -14.4887  -7.4912  -6.5661
    -5.7622  -5.5642  -5.1840  -4.7266  -4.1317  -4.0040  -3.8495  -2.6034
    -2.5638   1.2746   3.6010   3.9698

     occupation numbers 
     1.0000   1.0000   1.0000   1.0000   1.0000   1.0000   1.0000   1.0000
     1.0000   1.0000   1.0000   1.0000   1.0000   1.0000   1.0000   1.0000
     1.0000   0.0000   0.0000   0.0000

          k = 0.4500 0.3753 0.0000 ( 48224 PWs)   bands (ev):

  -106.0021 -66.4757 -66.4228 -66.4225 -14.6704 -14.4927  -7.5172  -6.5766
    -5.7663  -5.5680  -5.0565  -4.7050  -4.1445  -4.0211  -3.8680  -2.5550
    -2.5304   1.1780   3.4629   3.8885

     occupation numbers 
     1.0000   1.0000   1.0000   1.0000   1.0000   1.0000   1.0000   1.0000
     1.0000   1.0000   1.0000   1.0000   1.0000   1.0000   1.0000   1.0000
     1.0000   0.0000   0.0000   0.0000

          k = 0.4583 0.3608 0.0000 ( 48216 PWs)   bands (ev):

  -106.0021 -66.4757 -66.4228 -66.4225 -14.6780 -14.4963  -7.5393  -6.5860
    -5.7690  -5.5718  -4.9325  -4.6882  -4.1621  -4.0360  -3.8872  -2.5483
    -2.4605   1.0876   3.3259   3.8219

     occupation numbers 
     1.0000   1.0000   1.0000   1.0000   1.0000   1.0000   1.0000   1.0000
     1.0000   1.0000   1.0000   1.0000   1.0000   1.0000   1.0000   1.0000
     1.0000   0.0000   0.0000   0.0000

          k = 0.4667 0.3464 0.0000 ( 48246 PWs)   bands (ev):

  -106.0021 -66.4757 -66.4228 -66.4225 -14.6843 -14.4995  -7.5576  -6.5940
    -5.7706  -5.5752  -4.8141  -4.6755  -4.1862  -4.0484  -3.9058  -2.5434
    -2.3972   1.0074   3.2021   3.7690

     occupation numbers 
     1.0000   1.0000   1.0000   1.0000   1.0000   1.0000   1.0000   1.0000
     1.0000   1.0000   1.0000   1.0000   1.0000   1.0000   1.0000   1.0000
     1.0000   0.0000   0.0000   0.0000

          k = 0.4750 0.3320 0.0000 ( 48256 PWs)   bands (ev):

  -106.0021 -66.4757 -66.4228 -66.4225 -14.6893 -14.5020  -7.5720  -6.6004
    -5.7715  -5.5780  -4.7037  -4.6664  -4.2184  -4.0582  -3.9222  -2.5401
    -2.3437   0.9409   3.0991   3.7289

     occupation numbers 
     1.0000   1.0000   1.0000   1.0000   1.0000   1.0000   1.0000   1.0000
     1.0000   1.0000   1.0000   1.0000   1.0000   1.0000   1.0000   1.0000
     1.0000   0.0000   0.0000   0.0000

          k = 0.4833 0.3175 0.0000 ( 48226 PWs)   bands (ev):

  -106.0021 -66.4757 -66.4228 -66.4225 -14.6929 -14.5039  -7.5823  -6.6051
    -5.7719  -5.5801  -4.6603  -4.6046  -4.2593  -4.0652  -3.9348  -2.5380
    -2.3030   0.8912   3.0221   3.7008

     occupation numbers 
     1.0000   1.0000   1.0000   1.0000   1.0000   1.0000   1.0000   1.0000
     1.0000   1.0000   1.0000   1.0000   1.0000   1.0000   1.0000   1.0000
     1.0000   0.0000   0.0000   0.0000

          k = 0.4917 0.3031 0.0000 ( 48230 PWs)   bands (ev):

  -106.0021 -66.4757 -66.4228 -66.4225 -14.6951 -14.5050  -7.5884  -6.6080
    -5.7721  -5.5813  -4.6568  -4.5235  -4.3044  -4.0694  -3.9426  -2.5368
    -2.2775   0.8605   2.9746   3.6842

     occupation numbers 
     1.0000   1.0000   1.0000   1.0000   1.0000   1.0000   1.0000   1.0000
     1.0000   1.0000   1.0000   1.0000   1.0000   1.0000   1.0000   1.0000
     1.0000   0.0000   0.0000   0.0000

          k = 0.5000 0.2887 0.0000 ( 48254 PWs)   bands (ev):

  -106.0021 -66.4757 -66.4228 -66.4225 -14.6958 -14.5054  -7.5905  -6.6089
    -5.7722  -5.5818  -4.6557  -4.4853  -4.3304  -4.0708  -3.9453  -2.5365
    -2.2689   0.8501   2.9585   3.6787

     occupation numbers 
     1.0000   1.0000   1.0000   1.0000   1.0000   1.0000   1.0000   1.0000
     1.0000   1.0000   1.0000   1.0000   1.0000   1.0000   1.0000   1.0000
     1.0000   0.0000   0.0000   0.0000

          k = 0.4750 0.2742 0.0000 ( 48238 PWs)   bands (ev):

  -106.0021 -66.4757 -66.4228 -66.4225 -14.7098 -14.5022  -7.5731  -6.6046
    -5.7721  -5.5812  -4.6633  -4.4885  -4.3244  -4.0602  -3.9368  -2.5409
    -2.2682   0.8614   2.9645   3.6290

     occupation numbers 
     1.0000   1.0000   1.0000   1.0000   1.0000   1.0000   1.0000   1.0000
     1.0000   1.0000   1.0000   1.0000   1.0000   1.0000   1.0000   1.0000
     1.0000   0.0000   0.0000   0.0000

          k = 0.4500 0.2598 0.0000 ( 48236 PWs)   bands (ev):

  -106.0021 -66.4757 -66.4228 -66.4225 -14.7476 -14.4961  -7.5215  -6.5917
    -5.7718  -5.5815  -4.6788  -4.4967  -4.3100  -4.0298  -3.9127  -2.5545
    -2.2662   0.8954   2.9813   3.5617

     occupation numbers 
     1.0000   1.0000   1.0000   1.0000   1.0000   1.0000   1.0000   1.0000
     1.0000   1.0000   1.0000   1.0000   1.0000   1.0000   1.0000   1.0000
     1.0000   0.0000   0.0000   0.0000

          k = 0.4250 0.2454 0.0000 ( 48212 PWs)   bands (ev):

  -106.0021 -66.4757 -66.4228 -66.4225 -14.8023 -14.4928  -7.4374  -6.5708
    -5.7714  -5.5873  -4.6864  -4.5071  -4.2928  -3.9829  -3.8772  -2.5776
    -2.2629   0.9524   3.0054   3.5151

     occupation numbers 
     1.0000   1.0000   1.0000   1.0000   1.0000   1.0000   1.0000   1.0000
     1.0000   1.0000   1.0000   1.0000   1.0000   1.0000   1.0000   1.0000
     1.0000   0.0000   0.0000   0.0000

          k = 0.4000 0.2309 0.0000 ( 48204 PWs)   bands (ev):

  -106.0021 -66.4757 -66.4228 -66.4224 -14.8687 -14.4955  -7.3239  -6.5427
    -5.7712  -5.6037  -4.6706  -4.5163  -4.2759  -3.9230  -3.8352  -2.6105
    -2.2581   1.0327   3.0314   3.4953

     occupation numbers 
     1.0000   1.0000   1.0000   1.0000   1.0000   1.0000   1.0000   1.0000
     1.0000   1.0000   1.0000   1.0000   1.0000   1.0000   1.0000   1.0000
     1.0000   0.0000   0.0000   0.0000

          k = 0.3750 0.2165 0.0000 ( 48212 PWs)   bands (ev):

  -106.0021 -66.4757 -66.4228 -66.4224 -14.9431 -14.5052  -7.1855  -6.5087
    -5.7714  -5.6321  -4.6219  -4.5223  -4.2597  -3.8530  -3.7913  -2.6533
    -2.2518   1.1363   3.0531   3.4996

     occupation numbers 
     1.0000   1.0000   1.0000   1.0000   1.0000   1.0000   1.0000   1.0000
     1.0000   1.0000   1.0000   1.0000   1.0000   1.0000   1.0000   1.0000
     1.0000   0.0000   0.0000   0.0000

          k = 0.3500 0.2021 0.0000 ( 48210 PWs)   bands (ev):

  -106.0021 -66.4757 -66.4227 -66.4224 -15.0229 -14.5218  -7.0294  -6.4703
    -5.7721  -5.6664  -4.5387  -4.5236  -4.2427  -3.7751  -3.7484  -2.7055
    -2.2438   1.2623   3.0656   3.5139

     occupation numbers 
     1.0000   1.0000   1.0000   1.0000   1.0000   1.0000   1.0000   1.0000
     1.0000   1.0000   1.0000   1.0000   1.0000   1.0000   1.0000   1.0000
     1.0000   0.0000   0.0000   0.0000

          k = 0.3250 0.1876 0.0000 ( 48206 PWs)   bands (ev):

  -106.0021 -66.4757 -66.4227 -66.4224 -15.1057 -14.5442  -6.8666  -6.4293
    -5.7735  -5.6933  -4.5197  -4.4275  -4.2215  -3.7081  -3.6913  -2.7657
    -2.2340   1.4096   3.0654   3.5055

     occupation numbers 
     1.0000   1.0000   1.0000   1.0000   1.0000   1.0000   1.0000   1.0000
     1.0000   1.0000   1.0000   1.0000   1.0000   1.0000   1.0000   1.0000
     1.0000   0.0000   0.0000   0.0000

          k = 0.3000 0.1732 0.0000 ( 48198 PWs)   bands (ev):

  -106.0021 -66.4757 -66.4227 -66.4224 -15.1895 -14.5715  -6.7154  -6.3870
    -5.7758  -5.6921  -4.5103  -4.3104  -4.1791  -3.6709  -3.6033  -2.8316
    -2.2222   1.5759   3.0476   3.4417

     occupation numbers 
     1.0000   1.0000   1.0000   1.0000   1.0000   1.0000   1.0000   1.0000
     1.0000   1.0000   1.0000   1.0000   1.0000   1.0000   1.0000   1.0000
     1.0000   0.0000   0.0000   0.0000

          k = 0.2750 0.1588 0.0000 ( 48166 PWs)   bands (ev):

  -106.0021 -66.4757 -66.4226 -66.4224 -15.2726 -14.6021  -6.6039  -6.3397
    -5.7790  -5.6387  -4.4958  -4.2432  -4.0669  -3.6363  -3.5130  -2.8990
    -2.2081   1.7585   3.0054   3.3363

     occupation numbers 
     1.0000   1.0000   1.0000   1.0000   1.0000   1.0000   1.0000   1.0000
     1.0000   1.0000   1.0000   1.0000   1.0000   1.0000   1.0000   1.0000
     1.0000   0.0000   0.0000   0.0000

          k = 0.2500 0.1443 0.0000 ( 48148 PWs)   bands (ev):

  -106.0021 -66.4757 -66.4226 -66.4224 -15.3532 -14.6349  -6.5565  -6.2796
    -5.7829  -5.5190  -4.4769  -4.2140  -3.9058  -3.6035  -3.4221  -2.9606
    -2.1917   1.9537   2.9322   3.2258

     occupation numbers 
     1.0000   1.0000   1.0000   1.0000   1.0000   1.0000   1.0000   1.0000
     1.0000   1.0000   1.0000   1.0000   1.0000   1.0000   1.0000   1.0000
     1.0000   0.0000   0.0000   0.0000

          k = 0.2250 0.1299 0.0000 ( 48160 PWs)   bands (ev):

  -106.0021 -66.4757 -66.4225 -66.4224 -15.4300 -14.6685  -6.5637  -6.2112
    -5.7874  -5.3424  -4.4545  -4.1918  -3.7411  -3.5722  -3.3326  -3.0022
    -2.1726   2.1560   2.8297   3.1280

     occupation numbers 
     1.0000   1.0000   1.0000   1.0000   1.0000   1.0000   1.0000   1.0000
     1.0000   1.0000   1.0000   1.0000   1.0000   1.0000   1.0000   1.0000
     1.0000   0.0000   0.0000   0.0000

          k = 0.2000 0.1155 0.0000 ( 48154 PWs)   bands (ev):

  -106.0021 -66.4757 -66.4225 -66.4224 -15.5018 -14.7018  -6.5996  -6.1435
    -5.7924  -5.1329  -4.4296  -4.1694  -3.6036  -3.5450  -3.2466  -2.9963
    -2.1509   2.3526   2.7152   3.0432

     occupation numbers 
     1.0000   1.0000   1.0000   1.0000   1.0000   1.0000   1.0000   1.0000
     1.0000   1.0000   1.0000   1.0000   1.0000   1.0000   1.0000   1.0000
     1.0000   0.0000   0.0000   0.0000

          k = 0.1750 0.1010 0.0000 ( 48150 PWs)   bands (ev):

  -106.0021 -66.4758 -66.4225 -66.4224 -15.5674 -14.7337  -6.6471  -6.0793
    -5.7975  -4.9160  -4.4036  -4.1436  -3.5483  -3.4965  -3.1662  -2.9127
    -2.1266   2.4641   2.6704   2.9681

     occupation numbers 
     1.0000   1.0000   1.0000   1.0000   1.0000   1.0000   1.0000   1.0000
     1.0000   1.0000   1.0000   1.0000   1.0000   1.0000   1.0000   1.0000
     1.0000   0.0000   0.0000   0.0000

          k = 0.1500 0.0866 0.0000 ( 48150 PWs)   bands (ev):

  -106.0021 -66.4758 -66.4224 -66.4224 -15.6260 -14.7631  -6.6968  -6.0192
    -5.8026  -4.7148  -4.3777  -4.1118  -3.5724  -3.4176  -3.0934  -2.7616
    -2.1004   2.3732   2.7970   2.9086

     occupation numbers 
     1.0000   1.0000   1.0000   1.0000   1.0000   1.0000   1.0000   1.0000
     1.0000   1.0000   1.0000   1.0000   1.0000   1.0000   1.0000   1.0000
     1.0000   0.0000   0.0000   0.0000

          k = 0.1250 0.0722 0.0000 ( 48142 PWs)   bands (ev):

  -106.0021 -66.4758 -66.4224 -66.4224 -15.6767 -14.7894  -6.7438  -5.9643
    -5.8074  -4.5496  -4.3532  -4.0720  -3.6188  -3.3269  -3.0298  -2.5805
    -2.0732   2.2366   2.8213   2.9547

     occupation numbers 
     1.0000   1.0000   1.0000   1.0000   1.0000   1.0000   1.0000   1.0000
     1.0000   1.0000   1.0000   1.0000   1.0000   1.0000   1.0000   1.0000
     1.0000   0.0000   0.0000   0.0000

          k = 0.1000 0.0577 0.0000 ( 48133 PWs)   bands (ev):

  -106.0021 -66.4758 -66.4224 -66.4224 -15.7191 -14.8119  -6.7849  -5.9159
    -5.8116  -4.4323  -4.3312  -4.0262  -3.6711  -3.2176  -2.9769  -2.3980
    -2.0466   2.0975   2.7739   2.9656

     occupation numbers 
     1.0000   1.0000   1.0000   1.0000   1.0000   1.0000   1.0000   1.0000
     1.0000   1.0000   1.0000   1.0000   1.0000   1.0000   1.0000   1.0000
     1.0000   0.0000   0.0000   0.0000

          k = 0.0750 0.0433 0.0000 ( 48113 PWs)   bands (ev):

  -106.0021 -66.4758 -66.4224 -66.4223 -15.7525 -14.8299  -6.8184  -5.8756
    -5.8151  -4.3588  -4.3129  -3.9823  -3.7195  -3.0980  -2.9354  -2.2332
    -2.0225   1.9684   2.7299   2.8282

     occupation numbers 
     1.0000   1.0000   1.0000   1.0000   1.0000   1.0000   1.0000   1.0000
     1.0000   1.0000   1.0000   1.0000   1.0000   1.0000   1.0000   1.0000
     1.0000   0.0000   0.0000   0.0000

          k = 0.0500 0.0289 0.0000 ( 48107 PWs)   bands (ev):

  -106.0021 -66.4758 -66.4224 -66.4223 -15.7766 -14.8431  -6.8430  -5.8452
    -5.8177  -4.3164  -4.2992  -3.9486  -3.7583  -2.9879  -2.9056  -2.1015
    -2.0032   1.8619   2.6502   2.7158

     occupation numbers 
     1.0000   1.0000   1.0000   1.0000   1.0000   1.0000   1.0000   1.0000
     1.0000   1.0000   1.0000   1.0000   1.0000   1.0000   1.0000   1.0000
     1.0000   0.0000   0.0000   0.0000

          k = 0.0250 0.0144 0.0000 ( 48115 PWs)   bands (ev):

  -106.0021 -66.4758 -66.4223 -66.4223 -15.7912 -14.8511  -6.8580  -5.8263
    -5.8193  -4.2945  -4.2906  -3.9283  -3.7833  -2.9100  -2.8878  -2.0160
    -1.9907   1.7911   2.5433   2.6913

     occupation numbers 
     1.0000   1.0000   1.0000   1.0000   1.0000   1.0000   1.0000   1.0000
     1.0000   1.0000   1.0000   1.0000   1.0000   1.0000   1.0000   1.0000
     1.0000   0.0000   0.0000   0.0000

          k = 0.0000 0.0000 0.0000 ( 48107 PWs)   bands (ev):

  -106.0021 -66.4758 -66.4223 -66.4223 -15.7961 -14.8538  -6.8631  -5.8198
    -5.8198  -4.2877  -4.2877  -3.9217  -3.7919  -2.8819  -2.8819  -1.9863
    -1.9863   1.7661   2.5039   2.6845

     occupation numbers 
     1.0000   1.0000   1.0000   1.0000   1.0000   1.0000   1.0000   1.0000
     1.0000   1.0000   1.0000   1.0000   1.0000   1.0000   1.0000   1.0000
     1.0000   0.0000   0.0000   0.0000

 ------ SPIN DOWN ----------


          k = 0.0000 0.0000 0.0000 ( 48107 PWs)   bands (ev):

  -104.6314 -64.9663 -64.9552 -64.9552 -15.5713 -14.5976  -6.6439  -4.5725
    -4.5725  -3.5494  -3.3473  -3.3473  -3.1870  -2.6296  -2.6296  -0.8918
    -0.8918   1.8987   2.6088   2.7577

     occupation numbers 
     1.0000   1.0000   1.0000   1.0000   1.0000   1.0000   1.0000   1.0000
     1.0000   1.0000   1.0000   1.0000   1.0000   1.0000   1.0000   0.0000
     0.0000   0.0000   0.0000   0.0000

          k = 0.0167 0.0289 0.0000 ( 48103 PWs)   bands (ev):

  -104.6314 -64.9663 -64.9552 -64.9552 -15.5647 -14.5939  -6.6373  -4.5984
    -4.5718  -3.5325  -3.3602  -3.3587  -3.2055  -2.6495  -2.6309  -0.9273
    -0.8971   1.9314   2.6646   2.7671

     occupation numbers 
     1.0000   1.0000   1.0000   1.0000   1.0000   1.0000   1.0000   1.0000
     1.0000   1.0000   1.0000   1.0000   1.0000   1.0000   1.0000   0.0000
     0.0000   0.0000   0.0000   0.0000

          k = 0.0333 0.0577 0.0000 ( 48127 PWs)   bands (ev):

  -104.6314 -64.9663 -64.9553 -64.9552 -15.5450 -14.5829  -6.6178  -4.6710
    -4.5701  -3.4892  -3.4182  -3.3911  -3.2463  -2.6962  -2.6358  -1.0218
    -0.9150   2.0226   2.7837   2.8294

     occupation numbers 
     1.0000   1.0000   1.0000   1.0000   1.0000   1.0000   1.0000   1.0000
     1.0000   1.0000   1.0000   1.0000   1.0000   1.0000   1.0000   0.0000
     0.0000   0.0000   0.0000   0.0000

          k = 0.0500 0.0866 0.0000 ( 48139 PWs)   bands (ev):

  -104.6314 -64.9663 -64.9553 -64.9552 -15.5124 -14.5649  -6.5862  -4.7784
    -4.5682  -3.5585  -3.4640  -3.4119  -3.2765  -2.7457  -2.6480  -1.1469
    -0.9492   2.1563   2.8303   3.0467

     occupation numbers 
     1.0000   1.0000   1.0000   1.0000   1.0000   1.0000   1.0000   1.0000
     1.0000   1.0000   1.0000   1.0000   1.0000   1.0000   1.0000   0.0000
     0.0000   0.0000   0.0000   0.0000

          k = 0.0667 0.1155 0.0000 ( 48115 PWs)   bands (ev):

  -104.6314 -64.9663 -64.9553 -64.9553 -15.4675 -14.5405  -6.5438  -4.9096
    -4.5677  -3.7727  -3.5294  -3.3611  -3.2932  -2.7854  -2.6711  -1.2711
    -1.0018   2.3145   2.8868   3.2835

     occupation numbers 
     1.0000   1.0000   1.0000   1.0000   1.0000   1.0000   1.0000   1.0000
     1.0000   1.0000   1.0000   1.0000   1.0000   1.0000   1.0000   0.0000
     0.0000   0.0000   0.0000   0.0000

          k = 0.0833 0.1443 0.0000 ( 48105 PWs)   bands (ev):

  -104.6314 -64.9662 -64.9553 -64.9553 -15.4109 -14.5103  -6.4930  -5.0563
    -4.5713  -4.0289  -3.6182  -3.3167  -3.3048  -2.8164  -2.7059  -1.3700
    -1.0722   2.4845   2.9549   3.2537

     occupation numbers 
     1.0000   1.0000   1.0000   1.0000   1.0000   1.0000   1.0000   1.0000
     1.0000   1.0000   1.0000   1.0000   1.0000   1.0000   1.0000   0.0000
     0.0000   0.0000   0.0000   0.0000

          k = 0.1000 0.1732 0.0000 ( 48137 PWs)   bands (ev):

  -104.6314 -64.9662 -64.9554 -64.9553 -15.3434 -14.4755  -6.4377  -5.2123
    -4.5846  -4.2976  -3.7206  -3.3144  -3.2986  -2.8434  -2.7473  -1.4303
    -1.1569   2.6594   3.0308   3.1456

     occupation numbers 
     1.0000   1.0000   1.0000   1.0000   1.0000   1.0000   1.0000   1.0000
     1.0000   1.0000   1.0000   1.0000   1.0000   1.0000   1.0000   0.0000
     0.0000   0.0000   0.0000   0.0000

          k = 0.1167 0.2021 0.0000 ( 48129 PWs)   bands (ev):

  -104.6314 -64.9662 -64.9554 -64.9553 -15.2662 -14.4372  -6.3840  -5.3721
    -4.6445  -4.5234  -3.8328  -3.3218  -3.3179  -2.8703  -2.7851  -1.4504
    -1.2506   2.8279   3.0327   3.1088

     occupation numbers 
     1.0000   1.0000   1.0000   1.0000   1.0000   1.0000   1.0000   1.0000
     1.0000   1.0000   1.0000   1.0000   1.0000   1.0000   1.0000   0.0000
     0.0000   0.0000   0.0000   0.0000

          k = 0.1333 0.2309 0.0000 ( 48147 PWs)   bands (ev):

  -104.6314 -64.9662 -64.9555 -64.9553 -15.1805 -14.3967  -6.3418  -5.5309
    -4.8434  -4.5972  -3.9511  -3.3764  -3.3264  -2.9000  -2.8125  -1.4372
    -1.3467   2.8569   3.0750   3.1814

     occupation numbers 
     1.0000   1.0000   1.0000   1.0000   1.0000   1.0000   1.0000   1.0000
     1.0000   1.0000   1.0000   1.0000   1.0000   1.0000   1.0000   0.0000
     0.0000   0.0000   0.0000   0.0000

          k = 0.1500 0.2598 0.0000 ( 48139 PWs)   bands (ev):

  -104.6314 -64.9662 -64.9555 -64.9553 -15.0881 -14.3555  -6.3258  -5.6835
    -5.0384  -4.6438  -4.0728  -3.4651  -3.3264  -2.9340  -2.8314  -1.4383
    -1.4012   2.7617   3.2404   3.2652

     occupation numbers 
     1.0000   1.0000   1.0000   1.0000   1.0000   1.0000   1.0000   1.0000
     1.0000   1.0000   1.0000   1.0000   1.0000   1.0000   1.0000   0.0000
     0.0000   0.0000   0.0000   0.0000

          k = 0.1666 0.2886 0.0000 ( 48163 PWs)   bands (ev):

  -104.6314 -64.9662 -64.9556 -64.9553 -14.9907 -14.3153  -6.3522  -5.8249
    -5.1758  -4.6990  -4.1954  -3.5718  -3.3207  -2.9727  -2.8475  -1.5195
    -1.3537   2.6668   3.2813   3.4801

     occupation numbers 
     1.0000   1.0000   1.0000   1.0000   1.0000   1.0000   1.0000   1.0000
     1.0000   1.0000   1.0000   1.0000   1.0000   1.0000   1.0000   0.0000
     0.0000   0.0000   0.0000   0.0000

          k = 0.1833 0.3175 0.0000 ( 48159 PWs)   bands (ev):

  -104.6314 -64.9662 -64.9556 -64.9554 -14.8904 -14.2777  -6.4260  -5.9504
    -5.2512  -4.7597  -4.3177  -3.6864  -3.3081  -3.0157  -2.8643  -1.5860
    -1.3050   2.5785   3.3070   3.7113

     occupation numbers 
     1.0000   1.0000   1.0000   1.0000   1.0000   1.0000   1.0000   1.0000
     1.0000   1.0000   1.0000   1.0000   1.0000   1.0000   1.0000   0.0000
     0.0000   0.0000   0.0000   0.0000

          k = 0.2000 0.3464 0.0000 ( 48131 PWs)   bands (ev):

  -104.6314 -64.9662 -64.9556 -64.9554 -14.7896 -14.2443  -6.5333  -6.0559
    -5.2921  -4.8104  -4.4392  -3.8020  -3.2887  -3.0615  -2.8832  -1.6354
    -1.2640   2.4953   3.3287   3.9578

     occupation numbers 
     1.0000   1.0000   1.0000   1.0000   1.0000   1.0000   1.0000   1.0000
     1.0000   1.0000   1.0000   1.0000   1.0000   1.0000   1.0000   0.0000
     0.0000   0.0000   0.0000   0.0000

          k = 0.2166 0.3752 0.0000 ( 48159 PWs)   bands (ev):

  -104.6314 -64.9662 -64.9557 -64.9554 -14.6907 -14.2167  -6.6504  -6.1380
    -5.3437  -4.8253  -4.5597  -3.9134  -3.2635  -3.1080  -2.9040  -1.6672
    -1.2376   2.4161   3.3614   4.2180

     occupation numbers 
     1.0000   1.0000   1.0000   1.0000   1.0000   1.0000   1.0000   1.0000
     1.0000   1.0000   1.0000   1.0000   1.0000   1.0000   1.0000   0.0000
     0.0000   0.0000   0.0000   0.0000

          k = 0.2333 0.4041 0.0000 ( 48177 PWs)   bands (ev):

  -104.6314 -64.9662 -64.9557 -64.9554 -14.5962 -14.1959  -6.7581  -6.1946
    -5.4341  -4.7921  -4.6790  -4.0170  -3.2356  -3.1516  -2.9260  -1.6819
    -1.2304   2.3413   3.4185   4.4876

     occupation numbers 
     1.0000   1.0000   1.0000   1.0000   1.0000   1.0000   1.0000   1.0000
     1.0000   1.0000   1.0000   1.0000   1.0000   1.0000   1.0000   0.0000
     0.0000   0.0000   0.0000   0.0000

          k = 0.2500 0.4330 0.0000 ( 48187 PWs)   bands (ev):

  -104.6314 -64.9662 -64.9557 -64.9555 -14.5087 -14.1829  -6.8436  -6.2249
    -5.5577  -4.7960  -4.7247  -4.1099  -3.2229  -3.1744  -2.9482  -1.6807
    -1.2438   2.2733   3.5089   4.7469

     occupation numbers 
     1.0000   1.0000   1.0000   1.0000   1.0000   1.0000   1.0000   1.0000
     1.0000   1.0000   1.0000   1.0000   1.0000   1.0000   1.0000   0.0000
     0.0000   0.0000   0.0000   0.0000

          k = 0.2666 0.4618 0.0000 ( 48211 PWs)   bands (ev):

  -104.6314 -64.9662 -64.9557 -64.9555 -14.4303 -14.1781  -6.9004  -6.2302
    -5.6981  -4.9082  -4.6433  -4.1910  -3.2499  -3.1518  -2.9699  -1.6652
    -1.2766   2.2153   3.6358   4.8747

     occupation numbers 
     1.0000   1.0000   1.0000   1.0000   1.0000   1.0000   1.0000   1.0000
     1.0000   1.0000   1.0000   1.0000   1.0000   1.0000   1.0000   0.0000
     0.0000   0.0000   0.0000   0.0000

          k = 0.2833 0.4907 0.0000 ( 48211 PWs)   bands (ev):

  -104.6314 -64.9662 -64.9557 -64.9555 -14.3628 -14.1814  -6.9265  -6.2142
    -5.8408  -5.0109  -4.5623  -4.2595  -3.2808  -3.1199  -2.9905  -1.6371
    -1.3250   2.1706   3.7965   4.7659

     occupation numbers 
     1.0000   1.0000   1.0000   1.0000   1.0000   1.0000   1.0000   1.0000
     1.0000   1.0000   1.0000   1.0000   1.0000   1.0000   1.0000   0.0000
     0.0000   0.0000   0.0000   0.0000

          k = 0.3000 0.5196 0.0000 ( 48217 PWs)   bands (ev):

  -104.6314 -64.9662 -64.9557 -64.9556 -14.3073 -14.1923  -6.9253  -6.1837
    -5.9724  -5.0971  -4.4909  -4.3160  -3.3048  -3.0896  -3.0097  -1.5986
    -1.3831   2.1413   3.9811   4.6061

     occupation numbers 
     1.0000   1.0000   1.0000   1.0000   1.0000   1.0000   1.0000   1.0000
     1.0000   1.0000   1.0000   1.0000   1.0000   1.0000   1.0000   0.0000
     0.0000   0.0000   0.0000   0.0000

          k = 0.3166 0.5484 0.0000 ( 48229 PWs)   bands (ev):

  -104.6314 -64.9662 -64.9556 -64.9556 -14.2641 -14.2099  -6.9079  -6.1498
    -6.0756  -5.1570  -4.4346  -4.3611  -3.3195  -3.0637  -3.0274  -1.5523
    -1.4443   2.1271   4.1688   4.4527

     occupation numbers 
     1.0000   1.0000   1.0000   1.0000   1.0000   1.0000   1.0000   1.0000
     1.0000   1.0000   1.0000   1.0000   1.0000   1.0000   1.0000   0.0000
     0.0000   0.0000   0.0000   0.0000

          k = 0.3333 0.5773 0.0000 ( 48189 PWs)   bands (ev):

  -104.6314 -64.9662 -64.9556 -64.9556 -14.2330 -14.2329  -6.8960  -6.1260
    -6.1259  -5.1792  -4.3959  -4.3958  -3.3243  -3.0441  -3.0440  -1.5014
    -1.5012   2.1241   4.3208   4.3213

     occupation numbers 
     1.0000   1.0000   1.0000   1.0000   1.0000   1.0000   1.0000   1.0000
     1.0000   1.0000   1.0000   1.0000   1.0000   1.0000   1.0000   0.0000
     0.0000   0.0000   0.0000   0.0000

          k = 0.3416 0.5629 0.0000 ( 48219 PWs)   bands (ev):

  -104.6314 -64.9662 -64.9556 -64.9556 -14.2461 -14.2217  -6.9004  -6.1227
    -6.1217  -5.1733  -4.4096  -4.3830  -3.3232  -3.0520  -3.0369  -1.5258
    -1.4751   2.1241   4.2670   4.3677

     occupation numbers 
     1.0000   1.0000   1.0000   1.0000   1.0000   1.0000   1.0000   1.0000
     1.0000   1.0000   1.0000   1.0000   1.0000   1.0000   1.0000   0.0000
     0.0000   0.0000   0.0000   0.0000

          k = 0.3500 0.5484 0.0000 ( 48221 PWs)   bands (ev):

  -104.6314 -64.9662 -64.9556 -64.9556 -14.2601 -14.2130  -6.9144  -6.1236
    -6.0981  -5.1559  -4.4213  -4.3742  -3.3201  -3.0599  -3.0318  -1.5463
    -1.4490   2.1229   4.2229   4.3889

     occupation numbers 
     1.0000   1.0000   1.0000   1.0000   1.0000   1.0000   1.0000   1.0000
     1.0000   1.0000   1.0000   1.0000   1.0000   1.0000   1.0000   0.0000
     0.0000   0.0000   0.0000   0.0000

          k = 0.3583 0.5340 0.0000 ( 48227 PWs)   bands (ev):

  -104.6314 -64.9662 -64.9557 -64.9556 -14.2746 -14.2067  -6.9378  -6.1317
    -6.0526  -5.1278  -4.4308  -4.3691  -3.3154  -3.0677  -3.0286  -1.5621
    -1.4235   2.1184   4.1903   4.3860

     occupation numbers 
     1.0000   1.0000   1.0000   1.0000   1.0000   1.0000   1.0000   1.0000
     1.0000   1.0000   1.0000   1.0000   1.0000   1.0000   1.0000   0.0000
     0.0000   0.0000   0.0000   0.0000

          k = 0.3666 0.5196 0.0000 ( 48227 PWs)   bands (ev):

  -104.6314 -64.9662 -64.9557 -64.9556 -14.2895 -14.2025  -6.9687  -6.1452
    -5.9884  -5.0902  -4.4385  -4.3671  -3.3093  -3.0756  -3.0276  -1.5722
    -1.3988   2.1080   4.1709   4.3633

     occupation numbers 
     1.0000   1.0000   1.0000   1.0000   1.0000   1.0000   1.0000   1.0000
     1.0000   1.0000   1.0000   1.0000   1.0000   1.0000   1.0000   0.0000
     0.0000   0.0000   0.0000   0.0000

          k = 0.3750 0.5051 0.0000 ( 48231 PWs)   bands (ev):

  -104.6314 -64.9662 -64.9557 -64.9555 -14.3046 -14.2002  -7.0049  -6.1631
    -5.9084  -5.0452  -4.4444  -4.3677  -3.3023  -3.0836  -3.0288  -1.5758
    -1.3753   2.0893   4.1664   4.3264

     occupation numbers 
     1.0000   1.0000   1.0000   1.0000   1.0000   1.0000   1.0000   1.0000
     1.0000   1.0000   1.0000   1.0000   1.0000   1.0000   1.0000   0.0000
     0.0000   0.0000   0.0000   0.0000

          k = 0.3833 0.4907 0.0000 ( 48209 PWs)   bands (ev):

  -104.6314 -64.9662 -64.9557 -64.9555 -14.3198 -14.1996  -7.0442  -6.1843
    -5.8154  -4.9948  -4.4487  -4.3704  -3.2948  -3.0918  -3.0323  -1.5725
    -1.3533   2.0598   4.1783   4.2801

     occupation numbers 
     1.0000   1.0000   1.0000   1.0000   1.0000   1.0000   1.0000   1.0000
     1.0000   1.0000   1.0000   1.0000   1.0000   1.0000   1.0000   0.0000
     0.0000   0.0000   0.0000   0.0000

          k = 0.3916 0.4763 0.0000 ( 48181 PWs)   bands (ev):

  -104.6314 -64.9662 -64.9557 -64.9555 -14.3347 -14.2004  -7.0848  -6.2075
    -5.7120  -4.9410  -4.4515  -4.3746  -3.2871  -3.1002  -3.0381  -1.5615
    -1.3330   2.0178   4.2075   4.2275

     occupation numbers 
     1.0000   1.0000   1.0000   1.0000   1.0000   1.0000   1.0000   1.0000
     1.0000   1.0000   1.0000   1.0000   1.0000   1.0000   1.0000   0.0000
     0.0000   0.0000   0.0000   0.0000

          k = 0.4000 0.4618 0.0000 ( 48181 PWs)   bands (ev):

  -104.6314 -64.9662 -64.9557 -64.9555 -14.3493 -14.2023  -7.1252  -6.2318
    -5.6007  -4.8858  -4.4531  -4.3798  -3.2796  -3.1087  -3.0462  -1.5427
    -1.3145   1.9622   4.1703   4.2546

     occupation numbers 
     1.0000   1.0000   1.0000   1.0000   1.0000   1.0000   1.0000   1.0000
     1.0000   1.0000   1.0000   1.0000   1.0000   1.0000   1.0000   0.0000
     0.0000   0.0000   0.0000   0.0000

          k = 0.4083 0.4474 0.0000 ( 48161 PWs)   bands (ev):

  -104.6314 -64.9662 -64.9557 -64.9555 -14.3634 -14.2050  -7.1646  -6.2563
    -5.4835  -4.8308  -4.4535  -4.3853  -3.2726  -3.1173  -3.0567  -1.5161
    -1.2979   1.8933   4.1087   4.3190

     occupation numbers 
     1.0000   1.0000   1.0000   1.0000   1.0000   1.0000   1.0000   1.0000
     1.0000   1.0000   1.0000   1.0000   1.0000   1.0000   1.0000   0.0000
     0.0000   0.0000   0.0000   0.0000

          k = 0.4166 0.4330 0.0000 ( 48198 PWs)   bands (ev):

  -104.6314 -64.9662 -64.9557 -64.9555 -14.3768 -14.2084  -7.2021  -6.2803
    -5.3626  -4.7774  -4.4529  -4.3906  -3.2666  -3.1259  -3.0694  -1.4819
    -1.2833   1.8125   4.0406   4.3998

     occupation numbers 
     1.0000   1.0000   1.0000   1.0000   1.0000   1.0000   1.0000   1.0000
     1.0000   1.0000   1.0000   1.0000   1.0000   1.0000   1.0000   0.0000
     0.0000   0.0000   0.0000   0.0000

          k = 0.4250 0.4186 0.0000 ( 48190 PWs)   bands (ev):

  -104.6314 -64.9662 -64.9557 -64.9554 -14.3894 -14.2122  -7.2371  -6.3033
    -5.2405  -4.7270  -4.4516  -4.3950  -3.2622  -3.1344  -3.0842  -1.4409
    -1.2706   1.7222   3.9612   4.3855

     occupation numbers 
     1.0000   1.0000   1.0000   1.0000   1.0000   1.0000   1.0000   1.0000
     1.0000   1.0000   1.0000   1.0000   1.0000   1.0000   1.0000   0.0000
     0.0000   0.0000   0.0000   0.0000

          k = 0.4333 0.4041 0.0000 ( 48210 PWs)   bands (ev):

  -104.6314 -64.9662 -64.9558 -64.9554 -14.4010 -14.2162  -7.2693  -6.3248
    -5.1195  -4.6805  -4.4497  -4.3976  -3.2600  -3.1426  -3.1004  -1.3943
    -1.2599   1.6258   3.8637   4.2739

     occupation numbers 
     1.0000   1.0000   1.0000   1.0000   1.0000   1.0000   1.0000   1.0000
     1.0000   1.0000   1.0000   1.0000   1.0000   1.0000   1.0000   0.0000
     0.0000   0.0000   0.0000   0.0000

          k = 0.4417 0.3897 0.0000 ( 48232 PWs)   bands (ev):

  -104.6314 -64.9662 -64.9558 -64.9554 -14.4116 -14.2202  -7.2982  -6.3445
    -5.0029  -4.6387  -4.4474  -4.3973  -3.2609  -3.1504  -3.1172  -1.3436
    -1.2511   1.5273   3.7443   4.1789

     occupation numbers 
     1.0000   1.0000   1.0000   1.0000   1.0000   1.0000   1.0000   1.0000
     1.0000   1.0000   1.0000   1.0000   1.0000   1.0000   1.0000   0.0000
     0.0000   0.0000   0.0000   0.0000

          k = 0.4500 0.3753 0.0000 ( 48224 PWs)   bands (ev):

  -104.6314 -64.9662 -64.9558 -64.9554 -14.4209 -14.2241  -7.3237  -6.3620
    -4.8944  -4.6020  -4.4448  -4.3926  -3.2664  -3.1575  -3.1330  -1.2910
    -1.2440   1.4310   3.6102   4.0994

     occupation numbers 
     1.0000   1.0000   1.0000   1.0000   1.0000   1.0000   1.0000   1.0000
     1.0000   1.0000   1.0000   1.0000   1.0000   1.0000   1.0000   0.0000
     0.0000   0.0000   0.0000   0.0000

          k = 0.4583 0.3608 0.0000 ( 48216 PWs)   bands (ev):

  -104.6314 -64.9662 -64.9558 -64.9554 -14.4290 -14.2276  -7.3456  -6.3772
    -4.7990  -4.5708  -4.4423  -4.3815  -3.2774  -3.1639  -3.1461  -1.2391
    -1.2385   1.3410   3.4750   4.0345

     occupation numbers 
     1.0000   1.0000   1.0000   1.0000   1.0000   1.0000   1.0000   1.0000
     1.0000   1.0000   1.0000   1.0000   1.0000   1.0000   1.0000   0.0000
     0.0000   0.0000   0.0000   0.0000

          k = 0.4667 0.3464 0.0000 ( 48246 PWs)   bands (ev):

  -104.6314 -64.9662 -64.9558 -64.9554 -14.4357 -14.2306  -7.3636  -6.3898
    -4.7217  -4.5453  -4.4399  -4.3621  -3.2937  -3.1693  -3.1555  -1.2343
    -1.1906   1.2613   3.3509   3.9831

     occupation numbers 
     1.0000   1.0000   1.0000   1.0000   1.0000   1.0000   1.0000   1.0000
     1.0000   1.0000   1.0000   1.0000   1.0000   1.0000   1.0000   0.0000
     0.0000   0.0000   0.0000   0.0000

          k = 0.4750 0.3320 0.0000 ( 48256 PWs)   bands (ev):

  -104.6314 -64.9662 -64.9558 -64.9554 -14.4410 -14.2331  -7.3778  -6.3997
    -4.6661  -4.5254  -4.4379  -4.3348  -3.3131  -3.1736  -3.1614  -1.2314
    -1.1486   1.1954   3.2466   3.9441

     occupation numbers 
     1.0000   1.0000   1.0000   1.0000   1.0000   1.0000   1.0000   1.0000
     1.0000   1.0000   1.0000   1.0000   1.0000   1.0000   1.0000   0.0000
     0.0000   0.0000   0.0000   0.0000

          k = 0.4833 0.3175 0.0000 ( 48226 PWs)   bands (ev):

  -104.6314 -64.9662 -64.9558 -64.9554 -14.4448 -14.2349  -7.3879  -6.4069
    -4.6314  -4.5113  -4.4363  -4.3050  -3.3317  -3.1768  -3.1646  -1.2295
    -1.1160   1.1461   3.1681   3.9169

     occupation numbers 
     1.0000   1.0000   1.0000   1.0000   1.0000   1.0000   1.0000   1.0000
     1.0000   1.0000   1.0000   1.0000   1.0000   1.0000   1.0000   0.0000
     0.0000   0.0000   0.0000   0.0000

          k = 0.4917 0.3031 0.0000 ( 48230 PWs)   bands (ev):

  -104.6314 -64.9662 -64.9558 -64.9554 -14.4471 -14.2360  -7.3941  -6.4112
    -4.6133  -4.5029  -4.4353  -4.2819  -3.3452  -3.1787  -3.1662  -1.2284
    -1.0953   1.1157   3.1193   3.9008

     occupation numbers 
     1.0000   1.0000   1.0000   1.0000   1.0000   1.0000   1.0000   1.0000
     1.0000   1.0000   1.0000   1.0000   1.0000   1.0000   1.0000   0.0000
     0.0000   0.0000   0.0000   0.0000

          k = 0.5000 0.2887 0.0000 ( 48254 PWs)   bands (ev):

  -104.6314 -64.9662 -64.9558 -64.9554 -14.4479 -14.2364  -7.3961  -6.4127
    -4.6078  -4.5001  -4.4350  -4.2732  -3.3502  -3.1794  -3.1667  -1.2281
    -1.0883   1.1054   3.1028   3.8954

     occupation numbers 
     1.0000   1.0000   1.0000   1.0000   1.0000   1.0000   1.0000   1.0000
     1.0000   1.0000   1.0000   1.0000   1.0000   1.0000   1.0000   0.0000
     0.0000   0.0000   0.0000   0.0000

          k = 0.4750 0.2742 0.0000 ( 48238 PWs)   bands (ev):

  -104.6314 -64.9662 -64.9558 -64.9554 -14.4620 -14.2333  -7.3787  -6.4036
    -4.6539  -4.5004  -4.3913  -4.2689  -3.3499  -3.1755  -3.1607  -1.2334
    -1.0881   1.1153   3.1094   3.8244

     occupation numbers 
     1.0000   1.0000   1.0000   1.0000   1.0000   1.0000   1.0000   1.0000
     1.0000   1.0000   1.0000   1.0000   1.0000   1.0000   1.0000   0.0000
     0.0000   0.0000   0.0000   0.0000

          k = 0.4500 0.2598 0.0000 ( 48236 PWs)   bands (ev):

  -104.6314 -64.9662 -64.9558 -64.9554 -14.5005 -14.2274  -7.3271  -6.3770
    -4.7412  -4.5013  -4.3099  -4.2561  -3.3488  -3.1641  -3.1438  -1.2493
    -1.0877   1.1453   3.1279   3.7471

     occupation numbers 
     1.0000   1.0000   1.0000   1.0000   1.0000   1.0000   1.0000   1.0000
     1.0000   1.0000   1.0000   1.0000   1.0000   1.0000   1.0000   0.0000
     0.0000   0.0000   0.0000   0.0000

          k = 0.4250 0.2454 0.0000 ( 48212 PWs)   bands (ev):

  -104.6314 -64.9662 -64.9558 -64.9554 -14.5565 -14.2243  -7.2430  -6.3341
    -4.8364  -4.5028  -4.2348  -4.2203  -3.3470  -3.1452  -3.1182  -1.2759
    -1.0870   1.1964   3.1547   3.6946

     occupation numbers 
     1.0000   1.0000   1.0000   1.0000   1.0000   1.0000   1.0000   1.0000
     1.0000   1.0000   1.0000   1.0000   1.0000   1.0000   1.0000   0.0000
     0.0000   0.0000   0.0000   0.0000

          k = 0.4000 0.2309 0.0000 ( 48204 PWs)   bands (ev):

  -104.6314 -64.9662 -64.9557 -64.9554 -14.6246 -14.2272  -7.1292  -6.2777
    -4.9295  -4.5051  -4.2054  -4.1265  -3.3445  -3.1193  -3.0870  -1.3129
    -1.0859   1.2696   3.1838   3.6694

     occupation numbers 
     1.0000   1.0000   1.0000   1.0000   1.0000   1.0000   1.0000   1.0000
     1.0000   1.0000   1.0000   1.0000   1.0000   1.0000   1.0000   0.0000
     0.0000   0.0000   0.0000   0.0000

          k = 0.3750 0.2165 0.0000 ( 48212 PWs)   bands (ev):

  -104.6314 -64.9662 -64.9557 -64.9554 -14.7010 -14.2372  -6.9903  -6.2111
    -5.0127  -4.5080  -4.1680  -4.0285  -3.3413  -3.0869  -3.0534  -1.3592
    -1.0841   1.3656   3.2078   3.6678

     occupation numbers 
     1.0000   1.0000   1.0000   1.0000   1.0000   1.0000   1.0000   1.0000
     1.0000   1.0000   1.0000   1.0000   1.0000   1.0000   1.0000   0.0000
     0.0000   0.0000   0.0000   0.0000

          k = 0.3500 0.2021 0.0000 ( 48210 PWs)   bands (ev):

  -104.6314 -64.9662 -64.9557 -64.9553 -14.7828 -14.2543  -6.8331  -6.1390
    -5.0770  -4.5117  -4.1232  -3.9263  -3.3374  -3.0487  -3.0200  -1.4129
    -1.0814   1.4844   3.2201   3.6734

     occupation numbers 
     1.0000   1.0000   1.0000   1.0000   1.0000   1.0000   1.0000   1.0000
     1.0000   1.0000   1.0000   1.0000   1.0000   1.0000   1.0000   0.0000
     0.0000   0.0000   0.0000   0.0000

          k = 0.3250 0.1876 0.0000 ( 48206 PWs)   bands (ev):

  -104.6314 -64.9662 -64.9556 -64.9553 -14.8677 -14.2775  -6.6686  -6.0649
    -5.1106  -4.5161  -4.0716  -3.8203  -3.3328  -3.0058  -2.9886  -1.4706
    -1.0777   1.6249   3.2159   3.6499

     occupation numbers 
     1.0000   1.0000   1.0000   1.0000   1.0000   1.0000   1.0000   1.0000
     1.0000   1.0000   1.0000   1.0000   1.0000   1.0000   1.0000   0.0000
     0.0000   0.0000   0.0000   0.0000

          k = 0.3000 0.1732 0.0000 ( 48198 PWs)   bands (ev):

  -104.6314 -64.9662 -64.9556 -64.9553 -14.9535 -14.3056  -6.5162  -5.9855
    -5.1010  -4.5210  -4.0137  -3.7127  -3.3275  -2.9602  -2.9593  -1.5278
    -1.0724   1.7853   3.1901   3.5683

     occupation numbers 
     1.0000   1.0000   1.0000   1.0000   1.0000   1.0000   1.0000   1.0000
     1.0000   1.0000   1.0000   1.0000   1.0000   1.0000   1.0000   0.0000
     0.0000   0.0000   0.0000   0.0000

          k = 0.2750 0.1588 0.0000 ( 48166 PWs)   bands (ev):

  -104.6314 -64.9662 -64.9556 -64.9553 -15.0384 -14.3373  -6.4056  -5.8843
    -5.0396  -4.5265  -3.9506  -3.6073  -3.3216  -2.9350  -2.9107  -1.5784
    -1.0652   1.9627   3.1367   3.4526

     occupation numbers 
     1.0000   1.0000   1.0000   1.0000   1.0000   1.0000   1.0000   1.0000
     1.0000   1.0000   1.0000   1.0000   1.0000   1.0000   1.0000   0.0000
     0.0000   0.0000   0.0000   0.0000

          k = 0.2500 0.1443 0.0000 ( 48148 PWs)   bands (ev):

  -104.6314 -64.9662 -64.9555 -64.9553 -15.1207 -14.3713  -6.3574  -5.7468
    -4.9252  -4.5322  -3.8833  -3.5102  -3.3150  -2.9125  -2.8617  -1.6150
    -1.0557   2.1537   3.0514   3.3371

     occupation numbers 
     1.0000   1.0000   1.0000   1.0000   1.0000   1.0000   1.0000   1.0000
     1.0000   1.0000   1.0000   1.0000   1.0000   1.0000   1.0000   0.0000
     0.0000   0.0000   0.0000   0.0000

          k = 0.2250 0.1299 0.0000 ( 48160 PWs)   bands (ev):

  -104.6314 -64.9662 -64.9555 -64.9553 -15.1990 -14.4060  -6.3604  -5.5841
    -4.7634  -4.5382  -3.8128  -3.4291  -3.3082  -2.8915  -2.8141  -1.6291
    -1.0434   2.3535   2.9383   3.2348

     occupation numbers 
     1.0000   1.0000   1.0000   1.0000   1.0000   1.0000   1.0000   1.0000
     1.0000   1.0000   1.0000   1.0000   1.0000   1.0000   1.0000   0.0000
     0.0000   0.0000   0.0000   0.0000

          k = 0.2000 0.1155 0.0000 ( 48154 PWs)   bands (ev):

  -104.6314 -64.9662 -64.9554 -64.9553 -15.2721 -14.4405  -6.3918  -5.4160
    -4.5636  -4.5441  -3.7407  -3.3706  -3.3026  -2.8705  -2.7697  -1.6127
    -1.0281   2.5522   2.8124   3.1450

     occupation numbers 
     1.0000   1.0000   1.0000   1.0000   1.0000   1.0000   1.0000   1.0000
     1.0000   1.0000   1.0000   1.0000   1.0000   1.0000   1.0000   0.0000
     0.0000   0.0000   0.0000   0.0000

          k = 0.1750 0.1010 0.0000 ( 48150 PWs)   bands (ev):

  -104.6314 -64.9662 -64.9554 -64.9553 -15.3389 -14.4734  -6.4357  -5.2541
    -4.5499  -4.3379  -3.6685  -3.3352  -3.3034  -2.8486  -2.7302  -1.5611
    -1.0098   2.6357   2.7865   3.0665

     occupation numbers 
     1.0000   1.0000   1.0000   1.0000   1.0000   1.0000   1.0000   1.0000
     1.0000   1.0000   1.0000   1.0000   1.0000   1.0000   1.0000   0.0000
     0.0000   0.0000   0.0000   0.0000

          k = 0.1500 0.0866 0.0000 ( 48150 PWs)   bands (ev):

  -104.6314 -64.9662 -64.9554 -64.9553 -15.3985 -14.5039  -6.4828  -5.1030
    -4.5553  -4.1007  -3.5980  -3.3205  -3.3128  -2.8251  -2.6971  -1.4749
    -0.9890   2.5075   2.9226   3.0229

     occupation numbers 
     1.0000   1.0000   1.0000   1.0000   1.0000   1.0000   1.0000   1.0000
     1.0000   1.0000   1.0000   1.0000   1.0000   1.0000   1.0000   0.0000
     0.0000   0.0000   0.0000   0.0000

          k = 0.1250 0.0722 0.0000 ( 48142 PWs)   bands (ev):

  -104.6314 -64.9663 -64.9553 -64.9553 -15.4501 -14.5311  -6.5279  -4.9644
    -4.5602  -3.8687  -3.5315  -3.3520  -3.2996  -2.7986  -2.6712  -1.3615
    -0.9666   2.3656   2.9052   3.1000

     occupation numbers 
     1.0000   1.0000   1.0000   1.0000   1.0000   1.0000   1.0000   1.0000
     1.0000   1.0000   1.0000   1.0000   1.0000   1.0000   1.0000   0.0000
     0.0000   0.0000   0.0000   0.0000

          k = 0.1000 0.0577 0.0000 ( 48133 PWs)   bands (ev):

  -104.6314 -64.9663 -64.9553 -64.9553 -15.4931 -14.5543  -6.5677  -4.8400
    -4.5644  -3.6608  -3.4713  -3.3978  -3.2857  -2.7668  -2.6525  -1.2330
    -0.9441   2.2263   2.8547   3.0940

     occupation numbers 
     1.0000   1.0000   1.0000   1.0000   1.0000   1.0000   1.0000   1.0000
     1.0000   1.0000   1.0000   1.0000   1.0000   1.0000   1.0000   0.0000
     0.0000   0.0000   0.0000   0.0000

          k = 0.0750 0.0433 0.0000 ( 48113 PWs)   bands (ev):

  -104.6314 -64.9663 -64.9553 -64.9552 -15.5270 -14.5729  -6.6003  -4.7328
    -4.5679  -3.5023  -3.4455  -3.4201  -3.2666  -2.7273  -2.6405  -1.1049
    -0.9234   2.0984   2.8112   2.9440

     occupation numbers 
     1.0000   1.0000   1.0000   1.0000   1.0000   1.0000   1.0000   1.0000
     1.0000   1.0000   1.0000   1.0000   1.0000   1.0000   1.0000   0.0000
     0.0000   0.0000   0.0000   0.0000

          k = 0.0500 0.0289 0.0000 ( 48107 PWs)   bands (ev):

  -104.6314 -64.9663 -64.9553 -64.9552 -15.5515 -14.5865  -6.6243  -4.6478
    -4.5704  -3.5026  -3.3956  -3.3807  -3.2352  -2.6827  -2.6337  -0.9944
    -0.9066   1.9932   2.7608   2.7935

     occupation numbers 
     1.0000   1.0000   1.0000   1.0000   1.0000   1.0000   1.0000   1.0000
     1.0000   1.0000   1.0000   1.0000   1.0000   1.0000   1.0000   0.0000
     0.0000   0.0000   0.0000   0.0000

          k = 0.0250 0.0144 0.0000 ( 48115 PWs)   bands (ev):

  -104.6314 -64.9663 -64.9552 -64.9552 -15.5663 -14.5948  -6.6390  -4.5921
    -4.5719  -3.5366  -3.3567  -3.3558  -3.2010  -2.6448  -2.6305  -0.9188
    -0.8956   1.9233   2.6509   2.7647

     occupation numbers 
     1.0000   1.0000   1.0000   1.0000   1.0000   1.0000   1.0000   1.0000
     1.0000   1.0000   1.0000   1.0000   1.0000   1.0000   1.0000   0.0000
     0.0000   0.0000   0.0000   0.0000

          k = 0.0000 0.0000 0.0000 ( 48107 PWs)   bands (ev):

  -104.6314 -64.9663 -64.9552 -64.9552 -15.5713 -14.5976  -6.6439  -4.5725
    -4.5725  -3.5494  -3.3473  -3.3473  -3.1870  -2.6296  -2.6296  -0.8918
    -0.8918   1.8987   2.6088   2.7577

     occupation numbers 
     1.0000   1.0000   1.0000   1.0000   1.0000   1.0000   1.0000   1.0000
     1.0000   1.0000   1.0000   1.0000   1.0000   1.0000   1.0000   0.0000
     0.0000   0.0000   0.0000   0.0000

     the Fermi energy is    -1.8801 ev
     (compare with:    -1.7810 eV, computed in scf)

     Writing all to output data dir ./tmp/csp.save/
 
     init_run     :      0.88s CPU      0.96s WALL (       1 calls)
     electrons    :     44.50s CPU     44.79s WALL (       1 calls)

     Called by init_run:
     wfcinit      :      0.00s CPU      0.01s WALL (       1 calls)
     wfcinit:atom :      0.08s CPU      0.09s WALL (     122 calls)
     wfcinit:wfcr :      2.09s CPU      2.12s WALL (     122 calls)
     potinit      :      0.08s CPU      0.09s WALL (       1 calls)
     hinit0       :      0.67s CPU      0.73s WALL (       1 calls)

     Called by electrons:
     c_bands      :     44.50s CPU     44.78s WALL (       1 calls)
     v_of_rho     :      0.06s CPU      0.07s WALL (       1 calls)
     v_h          :      0.00s CPU      0.00s WALL (       1 calls)
     v_xc         :      0.06s CPU      0.07s WALL (       1 calls)

     Called by c_bands:
     init_us_2    :      0.12s CPU      0.13s WALL (     122 calls)
     init_us_2:cp :      0.12s CPU      0.13s WALL (     122 calls)
     cegterg      :     41.29s CPU     41.49s WALL (     256 calls)

     Called by sum_band:

     Called by *egterg:
     cdiaghg      :      2.09s CPU      2.10s WALL (    4171 calls)
     cegterg:over :      3.16s CPU      3.17s WALL (    4049 calls)
     cegterg:upda :      1.35s CPU      1.36s WALL (    4049 calls)
     cegterg:last :      1.67s CPU      1.67s WALL (    1938 calls)
     h_psi        :     33.58s CPU     33.77s WALL (    4427 calls)
     g_psi        :      0.31s CPU      0.31s WALL (    4049 calls)

     Called by h_psi:
     h_psi:calbec :      2.64s CPU      2.65s WALL (    4427 calls)
     vloc_psi     :     28.47s CPU     28.64s WALL (    4427 calls)
     add_vuspsi   :      2.07s CPU      2.08s WALL (    4427 calls)

     General routines
     calbec       :      2.63s CPU      2.64s WALL (    4427 calls)
     fft          :      0.09s CPU      0.14s WALL (      21 calls)
     ffts         :      0.00s CPU      0.00s WALL (       2 calls)
     fftw         :     23.71s CPU     23.84s WALL (   79660 calls)
     interpolate  :      0.01s CPU      0.01s WALL (       2 calls)
     davcio       :      0.11s CPU      0.17s WALL (     244 calls)
 
     Parallel routines
 
     PWSCF        :     46.66s CPU     47.70s WALL

 
   This run was terminated on:  15:29:52  27Jun2023            

=------------------------------------------------------------------------------=
   JOB DONE.
=------------------------------------------------------------------------------=
