
     Program PROJWFC v.7.1 starts on 27Jun2023 at 15:29:54 

     This program is part of the open-source Quantum ESPRESSO suite
     for quantum simulation of materials; please cite
         "P. Giannozzi et al., J. Phys.:Condens. Matter 21 395502 (2009);
         "P. Giannozzi et al., J. Phys.:Condens. Matter 29 465901 (2017);
         "P. Giannozzi et al., J. Chem. Phys. 152 154105 (2020);
          URL http://www.quantum-espresso.org", 
     in publications or presentations arising from this work. More details at
     http://www.quantum-espresso.org/quote

     Parallel version (MPI & OpenMP), running on      20 processor cores
     Number of MPI processes:                20
     Threads/MPI process:                     1

     MPI processes distributed on     1 nodes
     R & G space division:  proc/nbgrp/npool/nimage =      20
     225349 MiB available memory on the printing compute node when the environment starts
 

     Reading xml data from directory:

     ./tmp/csp.save/

     IMPORTANT: XC functional enforced from input :
     Exchange-correlation= PBE
                           (   1   4   3   4   0   0   0)
     Any further DFT definition will be discarded
     Please, verify this is what you really want

 
     Parallelization info
     --------------------
     sticks:   dense  smooth     PW     G-vecs:    dense   smooth      PW
     Min          93      89     24                20481    19267    2790
     Max          94      90     25                20502    19300    2817
     Sum        1879    1789    499               409943   385631   56191
 
     Using Slab Decomposition
 

     Gaussian broadening (read from input): ngauss,degauss=   0    0.003000


     Calling projwave .... 
     Subspace diagonalization in iterative solution of the eigenvalue problem:
     one sub-group per band group will be used
     ELPA distributed-memory algorithm (size of sub-group:  4*  4 procs)

     linear algebra parallelized on  16 procs
 
  Problem Sizes 
  natomwfc =           18
  nx       =            5
  nbnd     =           20
  nkstot   =          122
  npwx     =         2398
  nkb      =           54
 

     --------------------- ATOM    1 ----------------------

     Orbital quantum number l = 0
     SPIN  1
     occupation matrix ns (before diag.):
       0.998
     eigenvalues:
       0.998
     eigenvectors (columns):
       1.000
     SPIN  2
     occupation matrix ns (before diag.):
       0.998
     eigenvalues:
       0.998
     eigenvectors (columns):
       1.000

     Orbital quantum number l = 1
     SPIN  1
     occupation matrix ns (before diag.):
       1.000 -0.000  0.000
      -0.000  1.000 -0.000
       0.000 -0.000  1.000
     eigenvalues:
       1.000  1.000  1.000
     eigenvectors (columns):
       1.000  0.000  0.000
       0.000  1.000  0.000
       0.000  0.000  1.000
     SPIN  2
     occupation matrix ns (before diag.):
       1.000  0.000 -0.000
       0.000  1.000 -0.000
      -0.000 -0.000  1.000
     eigenvalues:
       1.000  1.000  1.000
     eigenvectors (columns):
       1.000  0.000  0.000
       0.000  1.000  0.000
       0.000  0.000  1.000

     Orbital quantum number l = 2
     SPIN  1
     occupation matrix ns (before diag.):
       0.991  0.002  0.001 -0.000 -0.002
       0.002  0.994 -0.001  0.002  0.002
       0.001 -0.001  0.995  0.001  0.002
      -0.000  0.002  0.001  0.993 -0.002
      -0.002  0.002  0.002 -0.002  0.991
     eigenvalues:
       0.986  0.992  0.994  0.995  0.996
     eigenvectors (columns):
      -0.459  0.831 -0.047 -0.139  0.278
       0.394 -0.078  0.336 -0.498  0.691
       0.229  0.097 -0.039  0.830  0.498
      -0.365 -0.404 -0.717 -0.134  0.415
      -0.669 -0.363  0.608  0.160  0.160
     SPIN  2
     occupation matrix ns (before diag.):
       0.976 -0.042 -0.013 -0.013 -0.037
      -0.042  0.612  0.019 -0.018 -0.271
      -0.013  0.019  0.600 -0.254 -0.018
      -0.013 -0.018 -0.254  0.804 -0.037
      -0.037 -0.271 -0.018 -0.037  0.769
     eigenvalues:
       0.391  0.436  0.973  0.978  0.983
     eigenvectors (columns):
      -0.098 -0.019 -0.345 -0.107  0.927
      -0.684 -0.407  0.568  0.148  0.148
      -0.361  0.746  0.231 -0.511  0.004
      -0.304  0.470 -0.232  0.795 -0.017
      -0.547 -0.240 -0.672 -0.271 -0.344

     Orbital quantum number l = 0
     SPIN  1
     occupation matrix ns (before diag.):
       0.323
     eigenvalues:
       0.323
     eigenvectors (columns):
       1.000
     SPIN  2
     occupation matrix ns (before diag.):
       0.333
     eigenvalues:
       0.333
     eigenvectors (columns):
       1.000

     --------------------- ATOM    2 ----------------------

     Orbital quantum number l = 0
     SPIN  1
     occupation matrix ns (before diag.):
       0.969
     eigenvalues:
       0.969
     eigenvectors (columns):
       1.000
     SPIN  2
     occupation matrix ns (before diag.):
       0.962
     eigenvalues:
       0.962
     eigenvectors (columns):
       1.000

     Orbital quantum number l = 1
     SPIN  1
     occupation matrix ns (before diag.):
       0.954  0.019  0.005
       0.019  0.934 -0.020
       0.005 -0.020  0.947
     eigenvalues:
       0.912  0.955  0.968
     eigenvectors (columns):
      -0.399  0.609 -0.685
       0.775 -0.175 -0.607
       0.490  0.773  0.402
     SPIN  2
     occupation matrix ns (before diag.):
       0.845 -0.010 -0.002
      -0.010  0.800  0.026
      -0.002  0.026  0.786
     eigenvalues:
       0.765  0.817  0.849
     eigenvectors (columns):
      -0.058  0.311 -0.949
      -0.617  0.736  0.279
       0.785  0.602  0.149

     --------------------- ATOM    3 ----------------------

     Orbital quantum number l = 0
     SPIN  1
     occupation matrix ns (before diag.):
       0.969
     eigenvalues:
       0.969
     eigenvectors (columns):
       1.000
     SPIN  2
     occupation matrix ns (before diag.):
       0.962
     eigenvalues:
       0.962
     eigenvectors (columns):
       1.000

     Orbital quantum number l = 1
     SPIN  1
     occupation matrix ns (before diag.):
       0.954  0.019  0.005
       0.019  0.934 -0.020
       0.005 -0.020  0.947
     eigenvalues:
       0.912  0.955  0.968
     eigenvectors (columns):
      -0.399  0.609 -0.685
       0.775 -0.175 -0.607
       0.490  0.773  0.402
     SPIN  2
     occupation matrix ns (before diag.):
       0.845 -0.010 -0.002
      -0.010  0.800  0.026
      -0.002  0.026  0.786
     eigenvalues:
       0.765  0.817  0.849
     eigenvectors (columns):
      -0.058  0.311 -0.949
      -0.617  0.736  0.279
       0.785  0.602  0.149

     Rotating the orbitals to the diagonal representation of ns...

     Atomic states used for projection
     (read from pseudopotential files):

     state #   1: atom   1 (Ni ), wfc  1 (l=0 m= 1)
     state #   2: atom   1 (Ni ), wfc  2 (l=1 m= 1)
     state #   3: atom   1 (Ni ), wfc  2 (l=1 m= 2)
     state #   4: atom   1 (Ni ), wfc  2 (l=1 m= 3)
     state #   5: atom   1 (Ni ), wfc  3 (l=2 m= 1)
     state #   6: atom   1 (Ni ), wfc  3 (l=2 m= 2)
     state #   7: atom   1 (Ni ), wfc  3 (l=2 m= 3)
     state #   8: atom   1 (Ni ), wfc  3 (l=2 m= 4)
     state #   9: atom   1 (Ni ), wfc  3 (l=2 m= 5)
     state #  10: atom   1 (Ni ), wfc  4 (l=0 m= 1)
     state #  11: atom   2 (I  ), wfc  1 (l=0 m= 1)
     state #  12: atom   2 (I  ), wfc  2 (l=1 m= 1)
     state #  13: atom   2 (I  ), wfc  2 (l=1 m= 2)
     state #  14: atom   2 (I  ), wfc  2 (l=1 m= 3)
     state #  15: atom   3 (I  ), wfc  1 (l=0 m= 1)
     state #  16: atom   3 (I  ), wfc  2 (l=1 m= 1)
     state #  17: atom   3 (I  ), wfc  2 (l=1 m= 2)
     state #  18: atom   3 (I  ), wfc  2 (l=1 m= 3)

 k =   0.0000000000  0.0000000000  0.0000000000
==== e(   1) =  -106.00214 eV ==== 
     psi = 0.996*[#   1]
    |psi|^2 = 1.000
==== e(   2) =   -66.47578 eV ==== 
     psi = 0.999*[#   2]
    |psi|^2 = 1.000
==== e(   3) =   -66.42234 eV ==== 
     psi = 0.797*[#   3]+0.203*[#   4]
    |psi|^2 = 1.000
==== e(   4) =   -66.42234 eV ==== 
     psi = 0.797*[#   4]+0.203*[#   3]
    |psi|^2 = 1.000
==== e(   5) =   -15.79608 eV ==== 
     psi = 0.364*[#  11]+0.364*[#  15]+0.261*[#  10]+0.002*[#  14]+0.002*[#  18]
          +0.002*[#  13]+0.002*[#  17]+0.001*[#   1]
    |psi|^2 = 1.000
==== e(   6) =   -14.85379 eV ==== 
     psi = 0.495*[#  11]+0.495*[#  15]+0.001*[#  14]+0.001*[#  18]+0.001*[#  13]
          +0.001*[#  17]
    |psi|^2 = 0.997
==== e(   7) =    -6.86309 eV ==== 
     psi = 0.176*[#  14]+0.176*[#  18]+0.139*[#  13]+0.139*[#  17]+0.072*[#  10]
          +0.069*[#   6]+0.060*[#  12]+0.060*[#  16]+0.035*[#  11]+0.035*[#  15]
          +0.021*[#   5]+0.008*[#   9]+0.002*[#   1]+0.002*[#   8]
    |psi|^2 = 0.994
==== e(   8) =    -5.81985 eV ==== 
     psi = 0.545*[#   7]+0.149*[#   8]+0.063*[#  14]+0.063*[#  18]+0.034*[#  13]
          +0.034*[#  17]+0.031*[#   9]+0.022*[#  12]+0.022*[#  16]+0.020*[#   6]
          +0.012*[#   5]
    |psi|^2 = 0.995
==== e(   9) =    -5.81985 eV ==== 
     psi = 0.555*[#   9]+0.091*[#   6]+0.078*[#  12]+0.078*[#  16]+0.071*[#   8]
          +0.041*[#  13]+0.041*[#  17]+0.026*[#   5]+0.014*[#   7]
    |psi|^2 = 0.995
==== e(  10) =    -4.28773 eV ==== 
     psi = 0.517*[#   5]+0.137*[#   6]+0.132*[#   8]+0.098*[#   9]+0.088*[#   7]
          +0.006*[#  12]+0.006*[#  16]+0.003*[#  13]+0.003*[#  17]
    |psi|^2 = 0.990
==== e(  11) =    -4.28773 eV ==== 
     psi = 0.602*[#   8]+0.168*[#   5]+0.110*[#   7]+0.091*[#   9]+0.005*[#  14]
          +0.005*[#  18]+0.003*[#  13]+0.003*[#  17]+0.001*[#  12]+0.001*[#  16]
          
    |psi|^2 = 0.990
==== e(  12) =    -3.92169 eV ==== 
     psi = 0.611*[#   6]+0.187*[#   5]+0.068*[#   9]+0.025*[#  10]+0.017*[#   8]
          +0.016*[#  14]+0.016*[#  18]+0.013*[#  13]+0.013*[#  17]+0.006*[#  11]
          +0.006*[#  15]+0.006*[#  12]+0.006*[#  16]+0.002*[#   7]
    |psi|^2 = 0.993
==== e(  13) =    -3.79190 eV ==== 
     psi = 0.232*[#  14]+0.232*[#  18]+0.184*[#  13]+0.184*[#  17]+0.079*[#  12]
          +0.079*[#  16]+0.003*[#  11]+0.003*[#  15]
    |psi|^2 = 0.995
==== e(  14) =    -2.88192 eV ==== 
     psi = 0.260*[#  14]+0.260*[#  18]+0.142*[#  13]+0.142*[#  17]+0.089*[#  12]
          +0.089*[#  16]
    |psi|^2 = 0.984
==== e(  15) =    -2.88192 eV ==== 
     psi = 0.324*[#  12]+0.324*[#  16]+0.167*[#  13]+0.167*[#  17]
    |psi|^2 = 0.984
==== e(  16) =    -1.98631 eV ==== 
     psi = 0.245*[#  12]+0.245*[#  16]+0.141*[#   9]+0.125*[#  13]+0.125*[#  17]
          +0.053*[#   6]+0.043*[#   5]+0.013*[#   7]+0.008*[#   8]
    |psi|^2 = 0.999
==== e(  17) =    -1.98631 eV ==== 
     psi = 0.223*[#   7]+0.196*[#  14]+0.196*[#  18]+0.108*[#  13]+0.108*[#  17]
          +0.067*[#  12]+0.067*[#  16]+0.017*[#   5]+0.010*[#   8]+0.006*[#   6]
          +0.002*[#   9]
    |psi|^2 = 0.999
==== e(  18) =     1.76614 eV ==== 
     psi = 0.402*[#  10]+0.058*[#  11]+0.058*[#  15]+0.025*[#  14]+0.025*[#  18]
          +0.020*[#  13]+0.020*[#  17]+0.008*[#  12]+0.008*[#  16]+0.001*[#   6]
          
    |psi|^2 = 0.627
==== e(  19) =     2.50392 eV ==== 
     psi = 0.001*[#  11]+0.001*[#  15]
    |psi|^2 = 0.004
==== e(  20) =     2.68447 eV ==== 
 
    |psi|^2 = 0.000

 k =   0.0166650000  0.0288646267  0.0000000000
==== e(   1) =  -106.00214 eV ==== 
     psi = 0.996*[#   1]
    |psi|^2 = 1.000
==== e(   2) =   -66.47578 eV ==== 
     psi = 0.999*[#   2]
    |psi|^2 = 1.000
==== e(   3) =   -66.42234 eV ==== 
     psi = 0.750*[#   4]+0.250*[#   3]
    |psi|^2 = 1.000
==== e(   4) =   -66.42234 eV ==== 
     psi = 0.750*[#   3]+0.250*[#   4]
    |psi|^2 = 1.000
==== e(   5) =   -15.78958 eV ==== 
     psi = 0.365*[#  11]+0.365*[#  15]+0.259*[#  10]+0.002*[#  14]+0.002*[#  18]
          +0.002*[#  13]+0.002*[#  17]+0.001*[#   1]
    |psi|^2 = 1.000
==== e(   6) =   -14.85021 eV ==== 
     psi = 0.495*[#  11]+0.495*[#  15]+0.001*[#  14]+0.001*[#  18]+0.001*[#  13]
          +0.001*[#  17]
    |psi|^2 = 0.997
==== e(   7) =    -6.85636 eV ==== 
     psi = 0.176*[#  14]+0.176*[#  18]+0.139*[#  13]+0.139*[#  17]+0.072*[#  10]
          +0.069*[#   6]+0.060*[#  12]+0.060*[#  16]+0.036*[#  11]+0.036*[#  15]
          +0.021*[#   5]+0.008*[#   9]+0.002*[#   1]+0.002*[#   8]
    |psi|^2 = 0.994
==== e(   8) =    -5.82841 eV ==== 
     psi = 0.551*[#   9]+0.091*[#   6]+0.079*[#  12]+0.079*[#  16]+0.069*[#   8]
          +0.041*[#  13]+0.041*[#  17]+0.027*[#   5]+0.013*[#   7]+0.002*[#  14]
          +0.002*[#  18]
    |psi|^2 = 0.995
==== e(   9) =    -5.81913 eV ==== 
     psi = 0.545*[#   7]+0.152*[#   8]+0.063*[#  14]+0.063*[#  18]+0.035*[#  13]
          +0.035*[#  17]+0.029*[#   9]+0.022*[#  12]+0.022*[#  16]+0.020*[#   6]
          +0.012*[#   5]
    |psi|^2 = 0.995
==== e(  10) =    -4.29663 eV ==== 
     psi = 0.500*[#   5]+0.143*[#   8]+0.135*[#   6]+0.097*[#   9]+0.090*[#   7]
          +0.007*[#  12]+0.007*[#  16]+0.005*[#  13]+0.005*[#  17]
    |psi|^2 = 0.990
==== e(  11) =    -4.29180 eV ==== 
     psi = 0.591*[#   8]+0.172*[#   5]+0.107*[#   7]+0.097*[#   9]+0.005*[#  14]
          +0.005*[#  18]+0.004*[#  13]+0.004*[#  17]+0.003*[#  12]+0.003*[#  16]
          
    |psi|^2 = 0.990
==== e(  12) =    -3.93058 eV ==== 
     psi = 0.606*[#   6]+0.194*[#   5]+0.064*[#   9]+0.026*[#  10]+0.015*[#  14]
          +0.015*[#  18]+0.014*[#  13]+0.014*[#  17]+0.013*[#   8]+0.008*[#  12]
          +0.008*[#  16]+0.007*[#  11]+0.007*[#  15]+0.001*[#   7]
    |psi|^2 = 0.992
==== e(  13) =    -3.78043 eV ==== 
     psi = 0.230*[#  14]+0.230*[#  18]+0.183*[#  13]+0.183*[#  17]+0.079*[#  12]
          +0.079*[#  16]+0.003*[#  11]+0.003*[#  15]+0.002*[#   5]+0.001*[#   6]
          
    |psi|^2 = 0.994
==== e(  14) =    -2.91901 eV ==== 
     psi = 0.314*[#  12]+0.314*[#  16]+0.162*[#  13]+0.162*[#  17]+0.006*[#   6]
          +0.007*[#  14]+0.007*[#  18]+0.004*[#   7]+0.004*[#   8]+0.002*[#   9]
          +0.001*[#  10]
    |psi|^2 = 0.984
==== e(  15) =    -2.88997 eV ==== 
     psi = 0.258*[#  14]+0.258*[#  18]+0.140*[#  13]+0.140*[#  17]+0.090*[#  12]
          +0.090*[#  16]+0.004*[#   5]+0.002*[#   6]
    |psi|^2 = 0.984
==== e(  16) =    -2.02532 eV ==== 
     psi = 0.241*[#  12]+0.241*[#  16]+0.142*[#   9]+0.125*[#  13]+0.125*[#  17]
          +0.053*[#   6]+0.042*[#   5]+0.013*[#   7]+0.008*[#   8]+0.004*[#  14]
          +0.004*[#  18]
    |psi|^2 = 0.997
==== e(  17) =    -1.99249 eV ==== 
     psi = 0.221*[#   7]+0.192*[#  14]+0.192*[#  18]+0.109*[#  13]+0.109*[#  17]
          +0.070*[#  12]+0.070*[#  16]+0.016*[#   5]+0.011*[#   8]+0.006*[#   6]
          +0.003*[#   9]
    |psi|^2 = 0.999
==== e(  18) =     1.79922 eV ==== 
     psi = 0.395*[#  10]+0.056*[#  11]+0.056*[#  15]+0.024*[#  14]+0.024*[#  18]
          +0.020*[#  13]+0.020*[#  17]+0.010*[#  12]+0.010*[#  16]
    |psi|^2 = 0.618
==== e(  19) =     2.55605 eV ==== 
     psi = 0.001*[#  11]+0.001*[#  15]
    |psi|^2 = 0.006
==== e(  20) =     2.69371 eV ==== 
 
    |psi|^2 = 0.000

 k =   0.0333300000  0.0577292534  0.0000000000
==== e(   1) =  -106.00214 eV ==== 
     psi = 0.996*[#   1]
    |psi|^2 = 1.000
==== e(   2) =   -66.47577 eV ==== 
     psi = 0.999*[#   2]
    |psi|^2 = 1.000
==== e(   3) =   -66.42236 eV ==== 
     psi = 0.750*[#   4]+0.250*[#   3]
    |psi|^2 = 1.000
==== e(   4) =   -66.42234 eV ==== 
     psi = 0.750*[#   3]+0.250*[#   4]
    |psi|^2 = 1.000
==== e(   5) =   -15.77017 eV ==== 
     psi = 0.366*[#  11]+0.366*[#  15]+0.255*[#  10]+0.002*[#  14]+0.002*[#  18]
          +0.002*[#  13]+0.002*[#  17]+0.001*[#  12]+0.001*[#  16]+0.001*[#   1]
          
    |psi|^2 = 1.000
==== e(   6) =   -14.83954 eV ==== 
     psi = 0.494*[#  11]+0.494*[#  15]+0.001*[#  13]+0.001*[#  14]+0.001*[#  17]
          +0.001*[#  18]
    |psi|^2 = 0.997
==== e(   7) =    -6.83640 eV ==== 
     psi = 0.175*[#  14]+0.175*[#  18]+0.139*[#  13]+0.139*[#  17]+0.074*[#  10]
          +0.068*[#   6]+0.060*[#  12]+0.060*[#  16]+0.036*[#  11]+0.036*[#  15]
          +0.021*[#   5]+0.008*[#   9]+0.002*[#   1]+0.002*[#   8]
    |psi|^2 = 0.994
==== e(   8) =    -5.85333 eV ==== 
     psi = 0.536*[#   9]+0.090*[#   6]+0.082*[#  12]+0.082*[#  16]+0.066*[#   8]
          +0.043*[#  13]+0.043*[#  17]+0.027*[#   5]+0.013*[#   7]+0.005*[#  14]
          +0.005*[#  18]
    |psi|^2 = 0.995
==== e(   9) =    -5.81714 eV ==== 
     psi = 0.541*[#   7]+0.155*[#   8]+0.063*[#  14]+0.063*[#  18]+0.035*[#  13]
          +0.035*[#  17]+0.030*[#   9]+0.022*[#  12]+0.022*[#  16]+0.020*[#   6]
          +0.011*[#   5]
    |psi|^2 = 0.995
==== e(  10) =    -4.32323 eV ==== 
     psi = 0.483*[#   5]+0.143*[#   8]+0.127*[#   6]+0.105*[#   9]+0.086*[#   7]
          +0.011*[#  12]+0.011*[#  13]+0.011*[#  16]+0.011*[#  17]
    |psi|^2 = 0.989
==== e(  11) =    -4.30663 eV ==== 
     psi = 0.584*[#   8]+0.149*[#   5]+0.108*[#   7]+0.103*[#   9]+0.010*[#  12]
          +0.010*[#  16]+0.007*[#  13]+0.007*[#  17]+0.005*[#  14]+0.005*[#  18]
          +0.002*[#   6]
    |psi|^2 = 0.990
==== e(  12) =    -3.95760 eV ==== 
     psi = 0.585*[#   6]+0.218*[#   5]+0.051*[#   9]+0.029*[#  10]+0.017*[#  13]
          +0.017*[#  17]+0.016*[#  12]+0.016*[#  16]+0.013*[#  14]+0.013*[#  18]
          +0.008*[#  11]+0.008*[#  15]+0.003*[#   8]
    |psi|^2 = 0.992
==== e(  13) =    -3.74762 eV ==== 
     psi = 0.223*[#  14]+0.223*[#  18]+0.184*[#  13]+0.184*[#  17]+0.081*[#  12]
          +0.081*[#  16]+0.006*[#   5]+0.004*[#   6]+0.003*[#   9]+0.002*[#  11]
          +0.002*[#  15]+0.001*[#   7]
    |psi|^2 = 0.994
==== e(  14) =    -3.01800 eV ==== 
     psi = 0.287*[#  12]+0.287*[#  16]+0.148*[#  13]+0.148*[#  17]+0.028*[#   6]
          +0.020*[#  14]+0.020*[#  18]+0.016*[#   8]+0.013*[#   7]+0.009*[#   9]
          +0.004*[#  10]+0.002*[#  11]+0.002*[#  15]
    |psi|^2 = 0.985
==== e(  15) =    -2.91597 eV ==== 
     psi = 0.250*[#  14]+0.250*[#  18]+0.134*[#  13]+0.134*[#  17]+0.091*[#  12]
          +0.091*[#  16]+0.019*[#   5]+0.009*[#   6]+0.004*[#   7]+0.002*[#   8]
          
    |psi|^2 = 0.983
==== e(  16) =    -2.13144 eV ==== 
     psi = 0.229*[#  12]+0.229*[#  16]+0.146*[#   9]+0.122*[#  13]+0.122*[#  17]
          +0.052*[#   6]+0.040*[#   5]+0.015*[#  14]+0.015*[#  18]+0.012*[#   7]
          +0.009*[#   8]+0.001*[#  11]+0.001*[#  15]
    |psi|^2 = 0.993
==== e(  17) =    -2.01413 eV ==== 
     psi = 0.215*[#   7]+0.182*[#  14]+0.182*[#  18]+0.114*[#  13]+0.114*[#  17]
          +0.077*[#  12]+0.077*[#  16]+0.016*[#   5]+0.013*[#   8]+0.004*[#   6]
          +0.003*[#   9]
    |psi|^2 = 0.998
==== e(  18) =     1.89169 eV ==== 
     psi = 0.376*[#  10]+0.051*[#  11]+0.051*[#  15]+0.022*[#  14]+0.022*[#  18]
          +0.020*[#  13]+0.020*[#  17]+0.012*[#  12]+0.012*[#  16]
    |psi|^2 = 0.591
==== e(  19) =     2.68718 eV ==== 
     psi = 0.002*[#  12]+0.002*[#  16]+0.001*[#  13]+0.001*[#  17]
    |psi|^2 = 0.008
==== e(  20) =     2.73499 eV ==== 
 
    |psi|^2 = 0.004

 k =   0.0499950000  0.0865938801  0.0000000000
==== e(   1) =  -106.00214 eV ==== 
     psi = 0.995*[#   1]
    |psi|^2 = 1.000
==== e(   2) =   -66.47577 eV ==== 
     psi = 0.999*[#   2]
    |psi|^2 = 1.000
==== e(   3) =   -66.42237 eV ==== 
     psi = 0.750*[#   4]+0.250*[#   3]
    |psi|^2 = 1.000
==== e(   4) =   -66.42235 eV ==== 
     psi = 0.750*[#   3]+0.250*[#   4]
    |psi|^2 = 1.000
==== e(   5) =   -15.73812 eV ==== 
     psi = 0.369*[#  11]+0.369*[#  15]+0.248*[#  10]+0.002*[#  14]+0.002*[#  18]
          +0.002*[#  13]+0.002*[#  17]+0.002*[#  12]+0.002*[#  16]+0.001*[#   1]
          
    |psi|^2 = 1.000
==== e(   6) =   -14.82213 eV ==== 
     psi = 0.493*[#  11]+0.493*[#  15]+0.001*[#   9]+0.001*[#  12]+0.001*[#  13]
          +0.001*[#  16]+0.001*[#  17]+0.001*[#  14]+0.001*[#  18]
    |psi|^2 = 0.997
==== e(   7) =    -6.80392 eV ==== 
     psi = 0.174*[#  14]+0.174*[#  18]+0.139*[#  13]+0.139*[#  17]+0.076*[#  10]
          +0.067*[#   6]+0.060*[#  12]+0.060*[#  16]+0.036*[#  11]+0.036*[#  15]
          +0.022*[#   5]+0.007*[#   9]+0.002*[#   1]+0.001*[#   8]
    |psi|^2 = 0.994
==== e(   8) =    -5.89248 eV ==== 
     psi = 0.513*[#   9]+0.089*[#   6]+0.086*[#  12]+0.086*[#  16]+0.062*[#   8]
          +0.047*[#  13]+0.047*[#  17]+0.029*[#   5]+0.013*[#   7]+0.011*[#  14]
          +0.011*[#  18]
    |psi|^2 = 0.994
==== e(   9) =    -5.81434 eV ==== 
     psi = 0.534*[#   7]+0.160*[#   8]+0.063*[#  14]+0.063*[#  18]+0.035*[#  13]
          +0.035*[#  17]+0.031*[#   9]+0.022*[#  12]+0.022*[#  16]+0.019*[#   6]
          +0.010*[#   5]
    |psi|^2 = 0.995
==== e(  10) =    -4.36751 eV ==== 
     psi = 0.456*[#   5]+0.144*[#   8]+0.117*[#   9]+0.114*[#   6]+0.081*[#   7]
          +0.018*[#  13]+0.018*[#  17]+0.016*[#  12]+0.016*[#  16]+0.003*[#  14]
          +0.003*[#  18]
    |psi|^2 = 0.988
==== e(  11) =    -4.34204 eV ==== 
     psi = 0.551*[#   8]+0.111*[#   9]+0.105*[#   5]+0.105*[#   7]+0.026*[#  12]
          +0.026*[#  16]+0.016*[#  13]+0.016*[#  17]+0.015*[#   6]+0.007*[#  14]
          +0.007*[#  18]+0.003*[#  10]+0.001*[#  11]+0.001*[#  15]
    |psi|^2 = 0.989
==== e(  12) =    -4.00112 eV ==== 
     psi = 0.534*[#   6]+0.261*[#   5]+0.032*[#  10]+0.029*[#   9]+0.026*[#  12]
          +0.026*[#  16]+0.020*[#  13]+0.020*[#  17]+0.009*[#  14]+0.009*[#  18]
          +0.009*[#  11]+0.009*[#  15]+0.004*[#   8]+0.003*[#   7]
    |psi|^2 = 0.991
==== e(  13) =    -3.69782 eV ==== 
     psi = 0.211*[#  14]+0.211*[#  18]+0.186*[#  13]+0.186*[#  17]+0.084*[#  12]
          +0.084*[#  16]+0.010*[#   5]+0.007*[#   6]+0.006*[#   9]+0.002*[#   7]
          +0.002*[#  11]+0.002*[#  15]
    |psi|^2 = 0.993
==== e(  14) =    -3.14907 eV ==== 
     psi = 0.244*[#  12]+0.244*[#  16]+0.126*[#  13]+0.126*[#  17]+0.069*[#   6]
          +0.039*[#   8]+0.037*[#  14]+0.037*[#  18]+0.026*[#   7]+0.021*[#   9]
          +0.007*[#  10]+0.003*[#  11]+0.003*[#  15]
    |psi|^2 = 0.986
==== e(  15) =    -2.96606 eV ==== 
     psi = 0.228*[#  14]+0.228*[#  18]+0.123*[#  13]+0.123*[#  17]+0.097*[#  12]
          +0.097*[#  16]+0.046*[#   5]+0.022*[#   6]+0.010*[#   7]+0.003*[#   8]
          +0.002*[#   9]
    |psi|^2 = 0.982
==== e(  16) =    -2.27616 eV ==== 
     psi = 0.207*[#  12]+0.207*[#  16]+0.151*[#   9]+0.117*[#  13]+0.117*[#  17]
          +0.049*[#   6]+0.040*[#  14]+0.040*[#  18]+0.034*[#   5]+0.011*[#   7]
          +0.011*[#   8]+0.002*[#  11]+0.002*[#  15]
    |psi|^2 = 0.989
==== e(  17) =    -2.05684 eV ==== 
     psi = 0.209*[#   7]+0.170*[#  14]+0.170*[#  18]+0.119*[#  13]+0.119*[#  17]
          +0.085*[#  12]+0.085*[#  16]+0.017*[#   8]+0.015*[#   5]+0.004*[#   9]
          +0.003*[#   6]
    |psi|^2 = 0.997
==== e(  18) =     2.02695 eV ==== 
     psi = 0.349*[#  10]+0.044*[#  11]+0.044*[#  15]+0.021*[#  13]+0.021*[#  17]
          +0.020*[#  14]+0.020*[#  18]+0.016*[#  12]+0.016*[#  16]
    |psi|^2 = 0.551
==== e(  19) =     2.74990 eV ==== 
 
    |psi|^2 = 0.002
==== e(  20) =     2.92607 eV ==== 
     psi = 0.003*[#  12]+0.003*[#  16]+0.002*[#  13]+0.002*[#  17]
    |psi|^2 = 0.014

 k =   0.0666600000  0.1154585068  0.0000000000
==== e(   1) =  -106.00214 eV ==== 
     psi = 0.995*[#   1]
    |psi|^2 = 1.000
==== e(   2) =   -66.47577 eV ==== 
     psi = 0.999*[#   2]
    |psi|^2 = 1.000
==== e(   3) =   -66.42240 eV ==== 
     psi = 0.750*[#   4]+0.250*[#   3]
    |psi|^2 = 1.000
==== e(   4) =   -66.42236 eV ==== 
     psi = 0.750*[#   3]+0.250*[#   4]
    |psi|^2 = 1.000
==== e(   5) =   -15.69390 eV ==== 
     psi = 0.373*[#  11]+0.373*[#  15]+0.238*[#  10]+0.003*[#  13]+0.003*[#  17]
          +0.002*[#  12]+0.002*[#  14]+0.002*[#  16]+0.002*[#  18]
    |psi|^2 = 1.000
==== e(   6) =   -14.79849 eV ==== 
     psi = 0.492*[#  11]+0.492*[#  15]+0.003*[#   9]+0.002*[#  12]+0.002*[#  16]
          +0.002*[#  13]+0.002*[#  17]+0.001*[#  14]+0.001*[#  18]
    |psi|^2 = 0.997
==== e(   7) =    -6.76023 eV ==== 
     psi = 0.173*[#  14]+0.173*[#  18]+0.139*[#  13]+0.139*[#  17]+0.080*[#  10]
          +0.065*[#   6]+0.061*[#  12]+0.061*[#  16]+0.036*[#  11]+0.036*[#  15]
          +0.022*[#   5]+0.007*[#   9]+0.002*[#   1]+0.001*[#   8]
    |psi|^2 = 0.994
==== e(   8) =    -5.94291 eV ==== 
     psi = 0.482*[#   9]+0.093*[#  12]+0.093*[#  16]+0.087*[#   6]+0.057*[#   8]
          +0.052*[#  13]+0.052*[#  17]+0.030*[#   5]+0.017*[#  14]+0.017*[#  18]
          +0.014*[#   7]
    |psi|^2 = 0.994
==== e(   9) =    -5.81155 eV ==== 
     psi = 0.524*[#   7]+0.168*[#   8]+0.062*[#  14]+0.062*[#  18]+0.036*[#  13]
          +0.036*[#  17]+0.032*[#   9]+0.024*[#  12]+0.024*[#  16]+0.019*[#   6]
          +0.009*[#   5]
    |psi|^2 = 0.995
==== e(  10) =    -4.42992 eV ==== 
     psi = 0.419*[#   5]+0.145*[#   8]+0.134*[#   9]+0.099*[#   6]+0.073*[#   7]
          +0.027*[#  13]+0.027*[#  17]+0.023*[#  12]+0.023*[#  16]+0.007*[#  14]
          +0.007*[#  18]
    |psi|^2 = 0.987
==== e(  11) =    -4.41836 eV ==== 
     psi = 0.458*[#   8]+0.112*[#   9]+0.090*[#   7]+0.059*[#  12]+0.059*[#  16]
          +0.051*[#   6]+0.050*[#   5]+0.034*[#  13]+0.034*[#  17]+0.011*[#  10]
          +0.010*[#  14]+0.010*[#  18]+0.004*[#  11]+0.004*[#  15]
    |psi|^2 = 0.988
==== e(  12) =    -4.05004 eV ==== 
     psi = 0.437*[#   6]+0.316*[#   5]+0.054*[#   8]+0.032*[#  10]+0.028*[#  12]
          +0.028*[#  16]+0.019*[#  13]+0.019*[#  17]+0.019*[#   7]+0.009*[#  11]
          +0.009*[#  15]+0.007*[#   9]+0.007*[#  14]+0.007*[#  18]
    |psi|^2 = 0.990
==== e(  13) =    -3.63765 eV ==== 
     psi = 0.196*[#  14]+0.196*[#  18]+0.191*[#  13]+0.191*[#  17]+0.090*[#  12]
          +0.090*[#  16]+0.013*[#   5]+0.009*[#   6]+0.008*[#   9]+0.003*[#   7]
          +0.002*[#  11]+0.002*[#  15]
    |psi|^2 = 0.992
==== e(  14) =    -3.27927 eV ==== 
     psi = 0.191*[#  12]+0.191*[#  16]+0.134*[#   6]+0.099*[#  13]+0.099*[#  17]
          +0.070*[#   8]+0.053*[#  14]+0.053*[#  18]+0.040*[#   7]+0.040*[#   9]
          +0.007*[#  10]+0.004*[#  11]+0.004*[#  15]+0.003*[#   5]
    |psi|^2 = 0.988
==== e(  15) =    -3.05015 eV ==== 
     psi = 0.183*[#  14]+0.183*[#  18]+0.112*[#  13]+0.112*[#  17]+0.111*[#  12]
          +0.111*[#  16]+0.090*[#   5]+0.046*[#   6]+0.020*[#   7]+0.008*[#   9]
          +0.004*[#   8]
    |psi|^2 = 0.981
==== e(  16) =    -2.42251 eV ==== 
     psi = 0.172*[#  12]+0.172*[#  16]+0.156*[#   9]+0.108*[#  13]+0.108*[#  17]
          +0.091*[#  14]+0.091*[#  18]+0.040*[#   6]+0.022*[#   5]+0.014*[#   8]
          +0.008*[#   7]+0.003*[#  11]+0.003*[#  15]
    |psi|^2 = 0.988
==== e(  17) =    -2.12368 eV ==== 
     psi = 0.203*[#   7]+0.158*[#  14]+0.158*[#  18]+0.123*[#  13]+0.123*[#  17]
          +0.092*[#  12]+0.092*[#  16]+0.022*[#   8]+0.014*[#   5]+0.006*[#   9]
          +0.003*[#   6]
    |psi|^2 = 0.995
==== e(  18) =     2.18656 eV ==== 
     psi = 0.321*[#  10]+0.037*[#  11]+0.037*[#  15]+0.021*[#  13]+0.021*[#  17]
          +0.018*[#  12]+0.018*[#  16]+0.016*[#  14]+0.016*[#  18]
    |psi|^2 = 0.508
==== e(  19) =     2.80445 eV ==== 
 
    |psi|^2 = 0.002
==== e(  20) =     3.15903 eV ==== 
     psi = 0.187*[#  10]+0.021*[#  11]+0.021*[#  15]+0.018*[#  13]+0.018*[#  17]
          +0.017*[#  12]+0.017*[#  16]+0.004*[#  14]+0.004*[#  18]+0.002*[#   6]
          +0.001*[#   5]
    |psi|^2 = 0.312

 k =   0.0833250000  0.1443231335  0.0000000000
==== e(   1) =  -106.00214 eV ==== 
     psi = 0.995*[#   1]
    |psi|^2 = 1.000
==== e(   2) =   -66.47576 eV ==== 
     psi = 0.999*[#   2]
    |psi|^2 = 1.000
==== e(   3) =   -66.42243 eV ==== 
     psi = 0.750*[#   4]+0.250*[#   3]
    |psi|^2 = 1.000
==== e(   4) =   -66.42236 eV ==== 
     psi = 0.750*[#   3]+0.250*[#   4]
    |psi|^2 = 1.000
==== e(   5) =   -15.63818 eV ==== 
     psi = 0.378*[#  11]+0.378*[#  15]+0.226*[#  10]+0.003*[#  12]+0.003*[#  16]
          +0.003*[#  13]+0.003*[#  17]+0.003*[#  14]+0.003*[#  18]
    |psi|^2 = 1.000
==== e(   6) =   -14.76936 eV ==== 
     psi = 0.491*[#  11]+0.491*[#  15]+0.004*[#   9]+0.002*[#  12]+0.002*[#  16]
          +0.002*[#  13]+0.002*[#  17]+0.001*[#  14]+0.001*[#  18]
    |psi|^2 = 0.998
==== e(   7) =    -6.70752 eV ==== 
     psi = 0.171*[#  14]+0.171*[#  18]+0.138*[#  13]+0.138*[#  17]+0.085*[#  10]
          +0.062*[#   6]+0.062*[#  12]+0.062*[#  16]+0.037*[#  11]+0.037*[#  15]
          +0.023*[#   5]+0.006*[#   9]+0.002*[#   1]
    |psi|^2 = 0.994
==== e(   8) =    -6.00143 eV ==== 
     psi = 0.446*[#   9]+0.101*[#  12]+0.101*[#  16]+0.085*[#   6]+0.059*[#  13]
          +0.059*[#  17]+0.051*[#   8]+0.032*[#   5]+0.023*[#  14]+0.023*[#  18]
          +0.014*[#   7]
    |psi|^2 = 0.993
==== e(   9) =    -5.81003 eV ==== 
     psi = 0.510*[#   7]+0.178*[#   8]+0.060*[#  14]+0.060*[#  18]+0.037*[#  13]
          +0.037*[#  17]+0.034*[#   9]+0.025*[#  12]+0.025*[#  16]+0.018*[#   6]
          +0.008*[#   5]
    |psi|^2 = 0.995
==== e(  10) =    -4.55444 eV ==== 
     psi = 0.319*[#   8]+0.103*[#  12]+0.103*[#  16]+0.096*[#   9]+0.094*[#   6]
          +0.067*[#   7]+0.056*[#  13]+0.056*[#  17]+0.023*[#  10]+0.019*[#  14]
          +0.019*[#  18]+0.014*[#   5]+0.008*[#  11]+0.008*[#  15]
    |psi|^2 = 0.986
==== e(  11) =    -4.51121 eV ==== 
     psi = 0.374*[#   5]+0.157*[#   9]+0.145*[#   8]+0.080*[#   6]+0.064*[#   7]
          +0.037*[#  13]+0.037*[#  17]+0.031*[#  12]+0.031*[#  16]+0.014*[#  14]
          +0.014*[#  18]+0.001*[#  11]+0.001*[#  15]
    |psi|^2 = 0.986
==== e(  12) =    -4.08605 eV ==== 
     psi = 0.351*[#   5]+0.325*[#   6]+0.147*[#   8]+0.048*[#   7]+0.027*[#  10]
          +0.021*[#  12]+0.021*[#  16]+0.013*[#  13]+0.013*[#  17]+0.007*[#  11]
          +0.007*[#  15]+0.005*[#  14]+0.005*[#  18]
    |psi|^2 = 0.991
==== e(  13) =    -3.57685 eV ==== 
     psi = 0.198*[#  13]+0.198*[#  17]+0.180*[#  14]+0.180*[#  18]+0.101*[#  12]
          +0.101*[#  16]+0.011*[#   5]+0.008*[#   6]+0.007*[#   9]+0.003*[#   7]
          +0.001*[#  11]+0.001*[#  15]
    |psi|^2 = 0.990
==== e(  14) =    -3.38714 eV ==== 
     psi = 0.209*[#   6]+0.138*[#  12]+0.138*[#  16]+0.099*[#   8]+0.073*[#  13]
          +0.073*[#  17]+0.065*[#  14]+0.065*[#  18]+0.060*[#   9]+0.053*[#   7]
          +0.006*[#   5]+0.005*[#  10]+0.003*[#  11]+0.003*[#  15]
    |psi|^2 = 0.990
==== e(  15) =    -3.17310 eV ==== 
     psi = 0.149*[#   5]+0.126*[#  12]+0.126*[#  16]+0.114*[#  14]+0.114*[#  18]
          +0.105*[#  13]+0.105*[#  17]+0.081*[#   6]+0.033*[#   7]+0.021*[#   9]
          +0.005*[#   8]+0.002*[#  11]+0.002*[#  15]
    |psi|^2 = 0.982
==== e(  16) =    -2.53871 eV ==== 
     psi = 0.163*[#  14]+0.163*[#  18]+0.157*[#   9]+0.128*[#  12]+0.128*[#  16]
          +0.092*[#  13]+0.092*[#  17]+0.027*[#   6]+0.019*[#   8]+0.009*[#   5]
          +0.004*[#  11]+0.004*[#  15]+0.004*[#   7]
    |psi|^2 = 0.989
==== e(  17) =    -2.21419 eV ==== 
     psi = 0.198*[#   7]+0.145*[#  14]+0.145*[#  18]+0.127*[#  13]+0.127*[#  17]
          +0.098*[#  12]+0.098*[#  16]+0.030*[#   8]+0.013*[#   5]+0.008*[#   9]
          +0.002*[#   6]
    |psi|^2 = 0.992
==== e(  18) =     2.35635 eV ==== 
     psi = 0.303*[#  10]+0.031*[#  11]+0.031*[#  15]+0.022*[#  13]+0.022*[#  17]
          +0.021*[#  12]+0.021*[#  16]+0.013*[#  14]+0.013*[#  18]
    |psi|^2 = 0.479
==== e(  19) =     2.86845 eV ==== 
 
    |psi|^2 = 0.003
==== e(  20) =     3.08503 eV ==== 
     psi = 0.185*[#  10]+0.024*[#  12]+0.024*[#  16]+0.023*[#  13]+0.023*[#  17]
          +0.018*[#  11]+0.018*[#  15]+0.002*[#   6]+0.002*[#  14]+0.002*[#  18]
          +0.002*[#   5]
    |psi|^2 = 0.323

 k =   0.0999900000  0.1731877602  0.0000000000
==== e(   1) =  -106.00214 eV ==== 
     psi = 0.995*[#   1]
    |psi|^2 = 1.000
==== e(   2) =   -66.47575 eV ==== 
     psi = 0.999*[#   2]
    |psi|^2 = 1.000
==== e(   3) =   -66.42247 eV ==== 
     psi = 0.749*[#   4]+0.250*[#   3]
    |psi|^2 = 1.000
==== e(   4) =   -66.42237 eV ==== 
     psi = 0.750*[#   3]+0.250*[#   4]
    |psi|^2 = 1.000
==== e(   5) =   -15.57184 eV ==== 
     psi = 0.384*[#  11]+0.384*[#  15]+0.211*[#  10]+0.004*[#  12]+0.004*[#  16]
          +0.003*[#  13]+0.003*[#  17]+0.003*[#  14]+0.003*[#  18]
    |psi|^2 = 1.000
==== e(   6) =   -14.73569 eV ==== 
     psi = 0.490*[#  11]+0.490*[#  15]+0.005*[#   9]+0.003*[#  12]+0.003*[#  16]
          +0.002*[#  13]+0.002*[#  17]+0.001*[#  14]+0.001*[#  18]
    |psi|^2 = 0.998
==== e(   7) =    -6.64936 eV ==== 
     psi = 0.168*[#  14]+0.168*[#  18]+0.138*[#  13]+0.138*[#  17]+0.092*[#  10]
          +0.064*[#  12]+0.064*[#  16]+0.058*[#   6]+0.038*[#  11]+0.038*[#  15]
          +0.023*[#   5]+0.005*[#   9]+0.002*[#   1]
    |psi|^2 = 0.995
==== e(   8) =    -6.06495 eV ==== 
     psi = 0.406*[#   9]+0.112*[#  12]+0.112*[#  16]+0.082*[#   6]+0.067*[#  13]
          +0.067*[#  17]+0.044*[#   8]+0.034*[#   5]+0.027*[#  14]+0.027*[#  18]
          +0.014*[#   7]
    |psi|^2 = 0.993
==== e(   9) =    -5.81150 eV ==== 
     psi = 0.491*[#   7]+0.192*[#   8]+0.056*[#  14]+0.056*[#  18]+0.041*[#  13]
          +0.041*[#  17]+0.038*[#   9]+0.029*[#  12]+0.029*[#  16]+0.015*[#   6]
          +0.007*[#   5]
    |psi|^2 = 0.995
==== e(  10) =    -4.74168 eV ==== 
     psi = 0.200*[#   8]+0.135*[#  12]+0.135*[#  16]+0.114*[#   6]+0.073*[#   9]
          +0.072*[#  13]+0.072*[#  17]+0.051*[#   7]+0.036*[#  14]+0.036*[#  18]
          +0.035*[#  10]+0.011*[#  11]+0.011*[#  15]+0.002*[#   5]
    |psi|^2 = 0.984
==== e(  11) =    -4.61172 eV ==== 
     psi = 0.320*[#   5]+0.185*[#   9]+0.144*[#   8]+0.060*[#   6]+0.053*[#   7]
          +0.045*[#  13]+0.045*[#  17]+0.040*[#  12]+0.040*[#  16]+0.025*[#  14]
          +0.025*[#  18]+0.002*[#  11]+0.002*[#  15]
    |psi|^2 = 0.985
==== e(  12) =    -4.10344 eV ==== 
     psi = 0.361*[#   5]+0.242*[#   6]+0.224*[#   8]+0.077*[#   7]+0.022*[#  10]
          +0.012*[#  12]+0.012*[#  16]+0.008*[#  13]+0.008*[#  17]+0.006*[#  11]
          +0.006*[#  15]+0.005*[#  14]+0.005*[#  18]+0.003*[#   9]
    |psi|^2 = 0.991
==== e(  13) =    -3.53634 eV ==== 
     psi = 0.195*[#  13]+0.195*[#  17]+0.172*[#  14]+0.172*[#  18]+0.125*[#  12]
          +0.125*[#  16]
    |psi|^2 = 0.986
==== e(  14) =    -3.46946 eV ==== 
     psi = 0.280*[#   6]+0.118*[#   8]+0.094*[#  12]+0.094*[#  16]+0.075*[#   9]
          +0.073*[#  14]+0.073*[#  18]+0.064*[#   7]+0.051*[#  13]+0.051*[#  17]
          +0.011*[#   5]+0.004*[#  10]+0.002*[#  11]+0.002*[#  15]
    |psi|^2 = 0.991
==== e(  15) =    -3.31349 eV ==== 
     psi = 0.218*[#   5]+0.125*[#  12]+0.125*[#  16]+0.121*[#   6]+0.116*[#  13]
          +0.116*[#  17]+0.048*[#   7]+0.036*[#   9]+0.034*[#  14]+0.034*[#  18]
          +0.006*[#   8]+0.003*[#  11]+0.003*[#  15]
    |psi|^2 = 0.985
==== e(  16) =    -2.61338 eV ==== 
     psi = 0.236*[#  14]+0.236*[#  18]+0.159*[#   9]+0.085*[#  12]+0.085*[#  16]
          +0.067*[#  13]+0.067*[#  17]+0.025*[#   8]+0.017*[#   6]+0.005*[#  11]
          +0.005*[#  15]+0.001*[#   5]+0.002*[#   7]
    |psi|^2 = 0.990
==== e(  17) =    -2.32505 eV ==== 
     psi = 0.193*[#   7]+0.132*[#  14]+0.132*[#  18]+0.130*[#  13]+0.130*[#  17]
          +0.104*[#  12]+0.104*[#  16]+0.039*[#   8]+0.011*[#   5]+0.010*[#   9]
          +0.001*[#   6]+0.001*[#  11]+0.001*[#  15]
    |psi|^2 = 0.989
==== e(  18) =     2.52507 eV ==== 
     psi = 0.317*[#  10]+0.028*[#  11]+0.028*[#  15]+0.026*[#  12]+0.026*[#  13]
          +0.026*[#  16]+0.026*[#  17]+0.010*[#  14]+0.010*[#  18]
    |psi|^2 = 0.501
==== e(  19) =     2.93857 eV ==== 
 
    |psi|^2 = 0.004
==== e(  20) =     2.96525 eV ==== 
     psi = 0.146*[#  10]+0.023*[#  12]+0.023*[#  16]+0.022*[#  13]+0.022*[#  17]
          +0.012*[#  11]+0.012*[#  15]+0.002*[#   5]+0.002*[#   6]+0.001*[#   7]
          
    |psi|^2 = 0.266

 k =   0.1166550000  0.2020523870  0.0000000000
==== e(   1) =  -106.00214 eV ==== 
     psi = 0.995*[#   1]
    |psi|^2 = 1.000
==== e(   2) =   -66.47575 eV ==== 
     psi = 0.999*[#   2]
    |psi|^2 = 1.000
==== e(   3) =   -66.42250 eV ==== 
     psi = 0.749*[#   4]+0.250*[#   3]
    |psi|^2 = 1.000
==== e(   4) =   -66.42239 eV ==== 
     psi = 0.750*[#   3]+0.250*[#   4]
    |psi|^2 = 1.000
==== e(   5) =   -15.49597 eV ==== 
     psi = 0.391*[#  11]+0.391*[#  15]+0.194*[#  10]+0.005*[#  12]+0.005*[#  16]
          +0.004*[#  13]+0.004*[#  17]+0.003*[#  14]+0.003*[#  18]
    |psi|^2 = 0.999
==== e(   6) =   -14.69861 eV ==== 
     psi = 0.489*[#  11]+0.489*[#  15]+0.007*[#   9]+0.003*[#  12]+0.003*[#  16]
          +0.002*[#  13]+0.002*[#  17]+0.001*[#   8]
    |psi|^2 = 0.998
==== e(   7) =    -6.59178 eV ==== 
     psi = 0.162*[#  14]+0.162*[#  18]+0.137*[#  13]+0.137*[#  17]+0.102*[#  10]
          +0.068*[#  12]+0.068*[#  16]+0.052*[#   6]+0.040*[#  11]+0.040*[#  15]
          +0.023*[#   5]+0.003*[#   9]+0.002*[#   1]
    |psi|^2 = 0.995
==== e(   8) =    -6.13064 eV ==== 
     psi = 0.361*[#   9]+0.125*[#  12]+0.125*[#  16]+0.080*[#   6]+0.076*[#  13]
          +0.076*[#  17]+0.037*[#   5]+0.037*[#   8]+0.031*[#  14]+0.031*[#  18]
          +0.014*[#   7]
    |psi|^2 = 0.992
==== e(   9) =    -5.81808 eV ==== 
     psi = 0.466*[#   7]+0.209*[#   8]+0.048*[#  14]+0.048*[#  18]+0.047*[#  13]
          +0.047*[#  17]+0.042*[#   9]+0.036*[#  12]+0.036*[#  16]+0.011*[#   6]
          +0.007*[#   5]
    |psi|^2 = 0.995
==== e(  10) =    -4.95085 eV ==== 
     psi = 0.149*[#  12]+0.149*[#  16]+0.122*[#   6]+0.118*[#   8]+0.078*[#  13]
          +0.078*[#  17]+0.064*[#  14]+0.064*[#  18]+0.052*[#   9]+0.044*[#   7]
          +0.041*[#  10]+0.012*[#  11]+0.012*[#  15]
    |psi|^2 = 0.982
==== e(  11) =    -4.73024 eV ==== 
     psi = 0.262*[#   5]+0.219*[#   9]+0.143*[#   8]+0.052*[#  13]+0.052*[#  17]
          +0.047*[#  12]+0.047*[#  16]+0.042*[#   7]+0.040*[#   6]+0.037*[#  14]
          +0.037*[#  18]+0.003*[#  11]+0.003*[#  15]
    |psi|^2 = 0.984
==== e(  12) =    -4.10778 eV ==== 
     psi = 0.360*[#   5]+0.270*[#   8]+0.189*[#   6]+0.104*[#   7]+0.018*[#  10]
          +0.008*[#   9]+0.007*[#  12]+0.007*[#  16]+0.005*[#  13]+0.005*[#  17]
          +0.005*[#  14]+0.005*[#  18]+0.004*[#  11]+0.004*[#  15]
    |psi|^2 = 0.991
==== e(  13) =    -3.58762 eV ==== 
     psi = 0.160*[#  12]+0.160*[#  16]+0.139*[#  13]+0.139*[#  17]+0.129*[#  14]
          +0.129*[#  18]+0.062*[#   5]+0.034*[#   6]+0.014*[#   7]+0.011*[#   9]
          +0.002*[#   8]
    |psi|^2 = 0.982
==== e(  14) =    -3.53439 eV ==== 
     psi = 0.337*[#   6]+0.124*[#   8]+0.084*[#   9]+0.079*[#  14]+0.079*[#  18]
          +0.075*[#   7]+0.062*[#  12]+0.062*[#  16]+0.034*[#  13]+0.034*[#  17]
          +0.015*[#   5]+0.003*[#  10]+0.001*[#  11]+0.001*[#  15]
    |psi|^2 = 0.992
==== e(  15) =    -3.38881 eV ==== 
     psi = 0.213*[#   5]+0.182*[#  13]+0.182*[#  17]+0.114*[#   6]+0.103*[#  12]
          +0.103*[#  16]+0.047*[#   7]+0.028*[#   9]+0.008*[#   8]+0.002*[#  11]
          +0.002*[#  14]+0.002*[#  15]+0.002*[#  18]
    |psi|^2 = 0.990
==== e(  16) =    -2.65124 eV ==== 
     psi = 0.295*[#  14]+0.295*[#  18]+0.166*[#   9]+0.051*[#  12]+0.051*[#  16]
          +0.040*[#  13]+0.040*[#  17]+0.031*[#   8]+0.012*[#   6]+0.005*[#  11]
          +0.005*[#  15]
    |psi|^2 = 0.991
==== e(  17) =    -2.45061 eV ==== 
     psi = 0.185*[#   7]+0.134*[#  13]+0.134*[#  17]+0.116*[#  14]+0.116*[#  18]
          +0.110*[#  12]+0.110*[#  16]+0.053*[#   8]+0.014*[#   9]+0.010*[#   5]
          +0.001*[#  11]+0.001*[#  15]
    |psi|^2 = 0.986
==== e(  18) =     2.65381 eV ==== 
     psi = 0.428*[#  10]+0.045*[#  12]+0.045*[#  16]+0.044*[#  13]+0.044*[#  17]
          +0.032*[#  11]+0.032*[#  15]+0.006*[#  14]+0.006*[#  18]+0.001*[#   1]
          
    |psi|^2 = 0.688
==== e(  19) =     2.88272 eV ==== 
     psi = 0.024*[#  10]+0.008*[#  12]+0.008*[#  16]+0.007*[#  13]+0.007*[#  17]
          +0.001*[#  11]+0.001*[#  15]+0.001*[#   7]+0.001*[#  14]+0.001*[#  18]
          
    |psi|^2 = 0.063
==== e(  20) =     3.00901 eV ==== 
 
    |psi|^2 = 0.005

 k =   0.1333200000  0.2309170137  0.0000000000
==== e(   1) =  -106.00214 eV ==== 
     psi = 0.995*[#   1]
    |psi|^2 = 1.000
==== e(   2) =   -66.47574 eV ==== 
     psi = 0.999*[#   2]
    |psi|^2 = 1.000
==== e(   3) =   -66.42254 eV ==== 
     psi = 0.749*[#   4]+0.250*[#   3]
    |psi|^2 = 1.000
==== e(   4) =   -66.42240 eV ==== 
     psi = 0.750*[#   3]+0.250*[#   4]
    |psi|^2 = 1.000
==== e(   5) =   -15.41192 eV ==== 
     psi = 0.399*[#  11]+0.399*[#  15]+0.176*[#  10]+0.005*[#  12]+0.005*[#  16]
          +0.004*[#  13]+0.004*[#  17]+0.003*[#  14]+0.003*[#  18]
    |psi|^2 = 0.999
==== e(   6) =   -14.65943 eV ==== 
     psi = 0.488*[#  11]+0.488*[#  15]+0.009*[#   9]+0.003*[#  12]+0.003*[#  16]
          +0.002*[#  13]+0.002*[#  17]+0.001*[#   8]
    |psi|^2 = 0.998
==== e(   7) =    -6.54510 eV ==== 
     psi = 0.150*[#  14]+0.150*[#  18]+0.135*[#  13]+0.135*[#  17]+0.117*[#  10]
          +0.076*[#  12]+0.076*[#  16]+0.043*[#   6]+0.042*[#  11]+0.042*[#  15]
          +0.021*[#   5]+0.003*[#   8]+0.002*[#   1]+0.001*[#   9]
    |psi|^2 = 0.995
==== e(   8) =    -6.19598 eV ==== 
     psi = 0.312*[#   9]+0.140*[#  12]+0.140*[#  16]+0.086*[#  13]+0.086*[#  17]
          +0.076*[#   6]+0.040*[#   5]+0.033*[#  14]+0.033*[#  18]+0.029*[#   8]
          +0.015*[#   7]
    |psi|^2 = 0.990
==== e(   9) =    -5.83125 eV ==== 
     psi = 0.435*[#   7]+0.226*[#   8]+0.058*[#  13]+0.058*[#  17]+0.048*[#   9]
          +0.046*[#  12]+0.046*[#  16]+0.033*[#  14]+0.033*[#  18]+0.007*[#   5]
          +0.006*[#   6]
    |psi|^2 = 0.996
==== e(  10) =    -5.15144 eV ==== 
     psi = 0.143*[#  12]+0.143*[#  16]+0.127*[#   6]+0.105*[#  14]+0.105*[#  18]
          +0.074*[#  13]+0.074*[#  17]+0.062*[#   8]+0.046*[#   7]+0.041*[#  10]
          +0.036*[#   9]+0.011*[#  11]+0.011*[#  15]+0.002*[#   5]
    |psi|^2 = 0.981
==== e(  11) =    -4.86302 eV ==== 
     psi = 0.259*[#   9]+0.205*[#   5]+0.140*[#   8]+0.055*[#  13]+0.055*[#  17]
          +0.053*[#  12]+0.053*[#  16]+0.052*[#  14]+0.052*[#  18]+0.031*[#   7]
          +0.023*[#   6]+0.003*[#  11]+0.003*[#  15]
    |psi|^2 = 0.984
==== e(  12) =    -4.10426 eV ==== 
     psi = 0.356*[#   5]+0.293*[#   8]+0.152*[#   6]+0.130*[#   7]+0.015*[#  10]
          +0.012*[#   9]+0.005*[#  14]+0.005*[#  18]+0.004*[#  12]+0.004*[#  16]
          +0.004*[#  13]+0.004*[#  17]+0.003*[#  11]+0.003*[#  15]
    |psi|^2 = 0.992
==== e(  13) =    -3.73266 eV ==== 
     psi = 0.162*[#  12]+0.162*[#  16]+0.145*[#   5]+0.118*[#  13]+0.118*[#  17]
          +0.081*[#   6]+0.066*[#  14]+0.066*[#  18]+0.032*[#   7]+0.025*[#   9]
          +0.004*[#   8]+0.002*[#  11]+0.002*[#  15]
    |psi|^2 = 0.983
==== e(  14) =    -3.59204 eV ==== 
     psi = 0.383*[#   6]+0.119*[#   8]+0.088*[#   7]+0.088*[#   9]+0.085*[#  14]
          +0.085*[#  18]+0.039*[#  12]+0.039*[#  16]+0.022*[#  13]+0.022*[#  17]
          +0.020*[#   5]+0.003*[#  10]
    |psi|^2 = 0.992
==== e(  15) =    -3.38972 eV ==== 
     psi = 0.212*[#  13]+0.212*[#  17]+0.184*[#   5]+0.106*[#  12]+0.106*[#  16]
          +0.090*[#   6]+0.039*[#   7]+0.011*[#   8]+0.010*[#   9]+0.008*[#  14]
          +0.008*[#  18]+0.001*[#  11]+0.001*[#  15]
    |psi|^2 = 0.989
==== e(  16) =    -2.65884 eV ==== 
     psi = 0.337*[#  14]+0.337*[#  18]+0.177*[#   9]+0.035*[#   8]+0.025*[#  12]
          +0.025*[#  16]+0.018*[#  13]+0.018*[#  17]+0.010*[#   6]+0.005*[#  11]
          +0.005*[#  15]
    |psi|^2 = 0.993
==== e(  17) =    -2.58317 eV ==== 
     psi = 0.175*[#   7]+0.139*[#  13]+0.139*[#  17]+0.117*[#  12]+0.117*[#  16]
          +0.098*[#  14]+0.098*[#  18]+0.071*[#   8]+0.018*[#   9]+0.008*[#   5]
          +0.002*[#  11]+0.002*[#  15]
    |psi|^2 = 0.984
==== e(  18) =     2.62058 eV ==== 
     psi = 0.424*[#  10]+0.056*[#  12]+0.056*[#  16]+0.055*[#  13]+0.055*[#  17]
          +0.026*[#  11]+0.026*[#  15]+0.003*[#   7]+0.002*[#   5]+0.001*[#   1]
          +0.001*[#  14]+0.001*[#  18]
    |psi|^2 = 0.705
==== e(  19) =     2.97955 eV ==== 
     psi = 0.032*[#  10]+0.004*[#  14]+0.004*[#  18]+0.002*[#  11]+0.002*[#  15]
          
    |psi|^2 = 0.050
==== e(  20) =     3.07237 eV ==== 
 
    |psi|^2 = 0.007

 k =   0.1499850000  0.2597816404  0.0000000000
==== e(   1) =  -106.00214 eV ==== 
     psi = 0.995*[#   1]+0.001*[#  12]
    |psi|^2 = 1.000
==== e(   2) =   -66.47573 eV ==== 
     psi = 0.999*[#   2]
    |psi|^2 = 1.000
==== e(   3) =   -66.42258 eV ==== 
     psi = 0.749*[#   4]+0.250*[#   3]
    |psi|^2 = 1.000
==== e(   4) =   -66.42242 eV ==== 
     psi = 0.749*[#   3]+0.250*[#   4]
    |psi|^2 = 1.000
==== e(   5) =   -15.32129 eV ==== 
     psi = 0.407*[#  11]+0.407*[#  15]+0.156*[#  10]+0.006*[#  12]+0.006*[#  16]
          +0.004*[#  13]+0.004*[#  17]+0.003*[#  14]+0.003*[#  18]
    |psi|^2 = 0.999
==== e(   6) =   -14.61961 eV ==== 
     psi = 0.487*[#  11]+0.487*[#  15]+0.011*[#   9]+0.003*[#  12]+0.003*[#  16]
          +0.002*[#   8]+0.002*[#  13]+0.002*[#  17]
    |psi|^2 = 0.998
==== e(   7) =    -6.52600 eV ==== 
     psi = 0.137*[#  10]+0.131*[#  13]+0.131*[#  17]+0.128*[#  14]+0.128*[#  18]
          +0.094*[#  12]+0.094*[#  16]+0.045*[#  11]+0.045*[#  15]+0.031*[#   6]
          +0.018*[#   5]+0.010*[#   8]+0.002*[#   1]
    |psi|^2 = 0.995
==== e(   8) =    -6.25865 eV ==== 
     psi = 0.261*[#   9]+0.157*[#  12]+0.157*[#  16]+0.098*[#  13]+0.098*[#  17]
          +0.072*[#   6]+0.043*[#   5]+0.033*[#  14]+0.033*[#  18]+0.022*[#   8]
          +0.015*[#   7]
    |psi|^2 = 0.989
==== e(   9) =    -5.84839 eV ==== 
     psi = 0.398*[#   7]+0.235*[#   8]+0.075*[#  13]+0.075*[#  17]+0.059*[#  12]
          +0.059*[#  16]+0.054*[#   9]+0.016*[#  14]+0.016*[#  18]+0.008*[#   5]
          +0.002*[#   6]
    |psi|^2 = 0.996
==== e(  10) =    -5.31802 eV ==== 
     psi = 0.164*[#  14]+0.164*[#  18]+0.134*[#   6]+0.120*[#  12]+0.120*[#  16]
          +0.061*[#  13]+0.061*[#  17]+0.051*[#   7]+0.035*[#  10]+0.025*[#   8]
          +0.023*[#   9]+0.007*[#  11]+0.007*[#  15]+0.006*[#   5]
    |psi|^2 = 0.980
==== e(  11) =    -5.00370 eV ==== 
     psi = 0.302*[#   9]+0.154*[#   5]+0.137*[#   8]+0.067*[#  14]+0.067*[#  18]
          +0.055*[#  13]+0.055*[#  17]+0.055*[#  12]+0.055*[#  16]+0.021*[#   7]
          +0.011*[#   6]+0.004*[#  11]+0.004*[#  15]
    |psi|^2 = 0.984
==== e(  12) =    -4.09577 eV ==== 
     psi = 0.351*[#   5]+0.303*[#   8]+0.160*[#   7]+0.123*[#   6]+0.015*[#   9]
          +0.014*[#  10]+0.005*[#  14]+0.005*[#  18]+0.003*[#  13]+0.003*[#  17]
          +0.003*[#  12]+0.003*[#  16]+0.003*[#  11]+0.003*[#  15]
    |psi|^2 = 0.992
==== e(  13) =    -3.88986 eV ==== 
     psi = 0.178*[#   5]+0.159*[#  12]+0.159*[#  16]+0.121*[#  13]+0.121*[#  17]
          +0.099*[#   6]+0.039*[#   7]+0.034*[#  14]+0.034*[#  18]+0.030*[#   9]
          +0.005*[#   8]+0.003*[#  11]+0.003*[#  15]
    |psi|^2 = 0.985
==== e(  14) =    -3.65062 eV ==== 
     psi = 0.423*[#   6]+0.104*[#   8]+0.103*[#   7]+0.090*[#  14]+0.090*[#  18]
          +0.086*[#   9]+0.025*[#   5]+0.022*[#  12]+0.022*[#  16]+0.012*[#  13]
          +0.012*[#  17]+0.003*[#  10]
    |psi|^2 = 0.992
==== e(  15) =    -3.39519 eV ==== 
     psi = 0.210*[#  13]+0.210*[#  17]+0.200*[#   5]+0.106*[#  12]+0.106*[#  16]
          +0.088*[#   6]+0.041*[#   7]+0.018*[#   8]+0.002*[#  14]+0.002*[#  18]
          +0.002*[#   9]
    |psi|^2 = 0.988
==== e(  16) =    -2.71334 eV ==== 
     psi = 0.162*[#   7]+0.144*[#  13]+0.144*[#  17]+0.124*[#  12]+0.124*[#  16]
          +0.096*[#   8]+0.077*[#  14]+0.077*[#  18]+0.025*[#   9]+0.007*[#   5]
          +0.002*[#  11]+0.002*[#  15]+0.001*[#  10]
    |psi|^2 = 0.984
==== e(  17) =    -2.64257 eV ==== 
     psi = 0.360*[#  14]+0.360*[#  18]+0.188*[#   9]+0.037*[#   8]+0.011*[#   6]
          +0.009*[#  12]+0.009*[#  16]+0.005*[#  11]+0.005*[#  15]+0.004*[#  13]
          +0.004*[#  17]
    |psi|^2 = 0.994
==== e(  18) =     2.52077 eV ==== 
     psi = 0.406*[#  10]+0.057*[#  12]+0.057*[#  16]+0.056*[#  13]+0.056*[#  17]
          +0.020*[#  11]+0.020*[#  15]+0.003*[#   7]+0.001*[#   1]+0.001*[#   5]
          
    |psi|^2 = 0.678
==== e(  19) =     3.12166 eV ==== 
     psi = 0.001*[#  12]+0.001*[#  16]+0.001*[#  14]+0.001*[#  18]+0.001*[#   5]
          
    |psi|^2 = 0.009
==== e(  20) =     3.16764 eV ==== 
     psi = 0.063*[#  10]+0.004*[#  11]+0.004*[#  15]+0.004*[#  14]+0.004*[#  18]
          +0.003*[#  12]+0.003*[#  16]+0.003*[#  13]+0.003*[#  17]
    |psi|^2 = 0.093

 k =   0.1666500000  0.2886462671  0.0000000000
==== e(   1) =  -106.00213 eV ==== 
     psi = 0.995*[#   1]+0.001*[#  12]+0.001*[#  16]+0.001*[#  13]+0.001*[#  17]
          
    |psi|^2 = 1.000
==== e(   2) =   -66.47572 eV ==== 
     psi = 0.999*[#   2]
    |psi|^2 = 1.000
==== e(   3) =   -66.42262 eV ==== 
     psi = 0.749*[#   4]+0.250*[#   3]
    |psi|^2 = 1.000
==== e(   4) =   -66.42244 eV ==== 
     psi = 0.749*[#   3]+0.250*[#   4]
    |psi|^2 = 1.000
==== e(   5) =   -15.22594 eV ==== 
     psi = 0.417*[#  11]+0.417*[#  15]+0.135*[#  10]+0.006*[#  12]+0.006*[#  16]
          +0.004*[#  13]+0.004*[#  17]+0.003*[#  14]+0.003*[#  18]
    |psi|^2 = 0.999
==== e(   6) =   -14.58070 eV ==== 
     psi = 0.487*[#  11]+0.487*[#  15]+0.012*[#   9]+0.003*[#  12]+0.003*[#  16]
          +0.002*[#   8]+0.001*[#  13]+0.001*[#  17]+0.001*[#   6]
    |psi|^2 = 0.998
==== e(   7) =    -6.55369 eV ==== 
     psi = 0.157*[#  10]+0.128*[#  13]+0.128*[#  17]+0.121*[#  12]+0.121*[#  16]
          +0.094*[#  14]+0.094*[#  18]+0.046*[#  11]+0.046*[#  15]+0.025*[#   8]
          +0.017*[#   6]+0.013*[#   5]+0.002*[#   7]+0.002*[#   1]+0.001*[#   9]
          
    |psi|^2 = 0.995
==== e(   8) =    -6.31642 eV ==== 
     psi = 0.208*[#   9]+0.176*[#  12]+0.176*[#  16]+0.111*[#  13]+0.111*[#  17]
          +0.067*[#   6]+0.047*[#   5]+0.031*[#  14]+0.031*[#  18]+0.015*[#   7]
          +0.015*[#   8]
    |psi|^2 = 0.988
==== e(   9) =    -5.85899 eV ==== 
     psi = 0.367*[#   7]+0.229*[#   8]+0.094*[#  13]+0.094*[#  17]+0.067*[#  12]
          +0.067*[#  16]+0.056*[#   9]+0.010*[#   5]+0.005*[#  14]+0.005*[#  18]
          +0.002*[#  10]
    |psi|^2 = 0.996
==== e(  10) =    -5.43652 eV ==== 
     psi = 0.230*[#  14]+0.230*[#  18]+0.138*[#   6]+0.088*[#  12]+0.088*[#  16]
          +0.048*[#   7]+0.045*[#  13]+0.045*[#  17]+0.026*[#  10]+0.015*[#   9]
          +0.012*[#   5]+0.007*[#   8]+0.003*[#  11]+0.003*[#  15]
    |psi|^2 = 0.979
==== e(  11) =    -5.14446 eV ==== 
     psi = 0.346*[#   9]+0.135*[#   8]+0.111*[#   5]+0.082*[#  14]+0.082*[#  18]
          +0.052*[#  12]+0.052*[#  16]+0.051*[#  13]+0.051*[#  17]+0.014*[#   7]
          +0.004*[#  11]+0.004*[#  15]+0.003*[#   6]
    |psi|^2 = 0.986
==== e(  12) =    -4.08376 eV ==== 
     psi = 0.341*[#   5]+0.307*[#   8]+0.194*[#   7]+0.094*[#   6]+0.017*[#   9]
          +0.012*[#  10]+0.006*[#  14]+0.006*[#  18]+0.003*[#  13]+0.003*[#  17]
          +0.002*[#  12]+0.002*[#  16]+0.002*[#  11]+0.002*[#  15]
    |psi|^2 = 0.993
==== e(  13) =    -4.04282 eV ==== 
     psi = 0.185*[#   5]+0.157*[#  12]+0.157*[#  16]+0.132*[#  13]+0.132*[#  17]
          +0.103*[#   6]+0.041*[#   7]+0.032*[#   9]+0.017*[#  14]+0.017*[#  18]
          +0.005*[#   8]+0.003*[#  11]+0.003*[#  15]
    |psi|^2 = 0.985
==== e(  14) =    -3.71547 eV ==== 
     psi = 0.461*[#   6]+0.117*[#   7]+0.092*[#  14]+0.092*[#  18]+0.080*[#   9]
          +0.079*[#   8]+0.033*[#   5]+0.011*[#  12]+0.011*[#  16]+0.006*[#  13]
          +0.006*[#  17]+0.003*[#  10]
    |psi|^2 = 0.991
==== e(  15) =    -3.41894 eV ==== 
     psi = 0.232*[#   5]+0.194*[#  13]+0.194*[#  17]+0.100*[#  12]+0.100*[#  16]
          +0.094*[#   6]+0.047*[#   7]+0.027*[#   8]
    |psi|^2 = 0.987
==== e(  16) =    -2.83128 eV ==== 
     psi = 0.148*[#  13]+0.148*[#  17]+0.144*[#   7]+0.131*[#  12]+0.131*[#  16]
          +0.126*[#   8]+0.055*[#  14]+0.055*[#  18]+0.034*[#   9]+0.006*[#   5]
          +0.002*[#  10]+0.002*[#   6]+0.002*[#  11]+0.002*[#  15]
    |psi|^2 = 0.985
==== e(  17) =    -2.61157 eV ==== 
     psi = 0.367*[#  14]+0.367*[#  18]+0.195*[#   9]+0.037*[#   8]+0.013*[#   6]
          +0.005*[#  11]+0.005*[#  15]+0.002*[#  12]+0.002*[#  16]
    |psi|^2 = 0.995
==== e(  18) =     2.42188 eV ==== 
     psi = 0.419*[#  10]+0.059*[#  12]+0.059*[#  16]+0.058*[#  13]+0.058*[#  17]
          +0.017*[#  11]+0.017*[#  15]+0.004*[#   7]+0.002*[#   1]+0.001*[#   5]
          
    |psi|^2 = 0.694
==== e(  19) =     3.15402 eV ==== 
     psi = 0.002*[#  12]+0.002*[#  16]+0.001*[#  13]+0.001*[#  17]+0.001*[#   5]
          +0.001*[#  14]+0.001*[#  18]
    |psi|^2 = 0.011
==== e(  20) =     3.38067 eV ==== 
     psi = 0.070*[#  10]+0.004*[#  12]+0.004*[#  16]+0.004*[#  13]+0.004*[#  17]
          +0.004*[#  11]+0.004*[#  15]+0.003*[#  14]+0.003*[#  18]
    |psi|^2 = 0.100

 k =   0.1833150000  0.3175108938  0.0000000000
==== e(   1) =  -106.00213 eV ==== 
     psi = 0.995*[#   1]+0.001*[#  12]+0.001*[#  16]+0.001*[#  13]+0.001*[#  17]
          
    |psi|^2 = 1.000
==== e(   2) =   -66.47572 eV ==== 
     psi = 0.999*[#   2]
    |psi|^2 = 1.000
==== e(   3) =   -66.42265 eV ==== 
     psi = 0.749*[#   4]+0.250*[#   3]
    |psi|^2 = 1.000
==== e(   4) =   -66.42246 eV ==== 
     psi = 0.749*[#   3]+0.250*[#   4]
    |psi|^2 = 1.000
==== e(   5) =   -15.12795 eV ==== 
     psi = 0.427*[#  11]+0.427*[#  15]+0.114*[#  10]+0.006*[#  12]+0.006*[#  16]
          +0.004*[#  13]+0.004*[#  17]+0.003*[#  14]+0.003*[#  18]+0.001*[#   7]
          
    |psi|^2 = 0.999
==== e(   6) =   -14.54427 eV ==== 
     psi = 0.487*[#  11]+0.487*[#  15]+0.014*[#   9]+0.002*[#   8]+0.002*[#  12]
          +0.002*[#  16]+0.001*[#   6]+0.001*[#  13]+0.001*[#  17]
    |psi|^2 = 0.999
==== e(   7) =    -6.63261 eV ==== 
     psi = 0.174*[#  10]+0.151*[#  12]+0.151*[#  16]+0.127*[#  13]+0.127*[#  17]
          +0.057*[#  14]+0.057*[#  18]+0.043*[#  11]+0.043*[#  15]+0.040*[#   8]
          +0.009*[#   5]+0.007*[#   6]+0.005*[#   9]+0.004*[#   7]+0.002*[#   1]
          
    |psi|^2 = 0.995
==== e(   8) =    -6.36714 eV ==== 
     psi = 0.196*[#  12]+0.196*[#  16]+0.155*[#   9]+0.125*[#  13]+0.125*[#  17]
          +0.061*[#   6]+0.051*[#   5]+0.028*[#  14]+0.028*[#  18]+0.015*[#   7]
          +0.008*[#   8]
    |psi|^2 = 0.986
==== e(   9) =    -5.85529 eV ==== 
     psi = 0.356*[#   7]+0.215*[#   8]+0.105*[#  13]+0.105*[#  17]+0.066*[#  12]
          +0.066*[#  16]+0.051*[#   9]+0.009*[#   5]+0.009*[#  10]+0.004*[#  14]
          +0.004*[#  18]+0.002*[#  11]+0.002*[#  15]
    |psi|^2 = 0.996
==== e(  10) =    -5.50911 eV ==== 
     psi = 0.291*[#  14]+0.291*[#  18]+0.133*[#   6]+0.059*[#  12]+0.059*[#  16]
          +0.033*[#  13]+0.033*[#  17]+0.024*[#   7]+0.021*[#   5]+0.017*[#  10]
          +0.012*[#   9]+0.002*[#   8]
    |psi|^2 = 0.978
==== e(  11) =    -5.27760 eV ==== 
     psi = 0.389*[#   9]+0.132*[#   8]+0.097*[#  14]+0.097*[#  18]+0.077*[#   5]
          +0.045*[#  12]+0.045*[#  16]+0.044*[#  13]+0.044*[#  17]+0.008*[#   7]
          +0.005*[#  11]+0.005*[#  15]
    |psi|^2 = 0.987
==== e(  12) =    -4.19129 eV ==== 
     psi = 0.177*[#   5]+0.158*[#  12]+0.158*[#  16]+0.146*[#  13]+0.146*[#  17]
          +0.101*[#   6]+0.040*[#   7]+0.034*[#   9]+0.007*[#  14]+0.007*[#  18]
          +0.004*[#   8]+0.003*[#  11]+0.003*[#  15]
    |psi|^2 = 0.985
==== e(  13) =    -4.06895 eV ==== 
     psi = 0.325*[#   5]+0.309*[#   8]+0.238*[#   7]+0.062*[#   6]+0.021*[#   9]
          +0.012*[#  10]+0.006*[#  14]+0.006*[#  18]+0.004*[#  13]+0.004*[#  17]
          +0.002*[#  12]+0.002*[#  16]+0.001*[#  11]+0.001*[#  15]
    |psi|^2 = 0.993
==== e(  14) =    -3.78769 eV ==== 
     psi = 0.504*[#   6]+0.124*[#   7]+0.090*[#  14]+0.090*[#  18]+0.070*[#   9]
          +0.050*[#   8]+0.047*[#   5]+0.004*[#  10]+0.004*[#  12]+0.004*[#  16]
          +0.002*[#  13]+0.002*[#  17]
    |psi|^2 = 0.991
==== e(  15) =    -3.45725 eV ==== 
     psi = 0.270*[#   5]+0.171*[#  13]+0.171*[#  17]+0.103*[#   6]+0.089*[#  12]
          +0.089*[#  16]+0.054*[#   7]+0.038*[#   8]+0.001*[#   9]+0.001*[#  14]
          +0.001*[#  18]
    |psi|^2 = 0.988
==== e(  16) =    -2.92890 eV ==== 
     psi = 0.159*[#   8]+0.152*[#  13]+0.152*[#  17]+0.135*[#  12]+0.135*[#  16]
          +0.125*[#   7]+0.044*[#   9]+0.035*[#  14]+0.035*[#  18]+0.005*[#   6]
          +0.005*[#   5]+0.003*[#  10]+0.002*[#  11]+0.002*[#  15]
    |psi|^2 = 0.987
==== e(  17) =    -2.57689 eV ==== 
     psi = 0.364*[#  14]+0.364*[#  18]+0.200*[#   9]+0.036*[#   8]+0.015*[#   6]
          +0.005*[#  11]+0.005*[#  15]+0.003*[#  13]+0.003*[#  17]
    |psi|^2 = 0.996
==== e(  18) =     2.33018 eV ==== 
     psi = 0.442*[#  10]+0.062*[#  12]+0.062*[#  16]+0.060*[#  13]+0.060*[#  17]
          +0.014*[#  11]+0.014*[#  15]+0.004*[#   7]+0.002*[#   1]
    |psi|^2 = 0.723
==== e(  19) =     3.17396 eV ==== 
     psi = 0.002*[#  12]+0.002*[#  16]+0.002*[#  13]+0.002*[#  17]
    |psi|^2 = 0.012
==== e(  20) =     3.61073 eV ==== 
     psi = 0.069*[#  10]+0.004*[#  12]+0.004*[#  16]+0.004*[#  13]+0.004*[#  17]
          +0.003*[#  11]+0.003*[#  15]+0.002*[#  14]+0.002*[#  18]
    |psi|^2 = 0.097

 k =   0.1999800000  0.3463755205  0.0000000000
==== e(   1) =  -106.00213 eV ==== 
     psi = 0.995*[#   1]+0.001*[#  12]+0.001*[#  16]+0.001*[#  13]+0.001*[#  17]
          
    |psi|^2 = 1.000
==== e(   2) =   -66.47571 eV ==== 
     psi = 0.999*[#   2]
    |psi|^2 = 1.000
==== e(   3) =   -66.42268 eV ==== 
     psi = 0.749*[#   4]+0.250*[#   3]
    |psi|^2 = 1.000
==== e(   4) =   -66.42248 eV ==== 
     psi = 0.749*[#   3]+0.250*[#   4]
    |psi|^2 = 1.000
==== e(   5) =   -15.02964 eV ==== 
     psi = 0.437*[#  11]+0.437*[#  15]+0.093*[#  10]+0.006*[#  12]+0.006*[#  16]
          +0.004*[#  13]+0.004*[#  17]+0.004*[#  14]+0.004*[#  18]+0.002*[#   7]
          
    |psi|^2 = 0.999
==== e(   6) =   -14.51185 eV ==== 
     psi = 0.487*[#  11]+0.487*[#  15]+0.015*[#   9]+0.002*[#   8]+0.002*[#  12]
          +0.002*[#  16]+0.001*[#   6]
    |psi|^2 = 0.999
==== e(   7) =    -6.74356 eV ==== 
     psi = 0.187*[#  10]+0.175*[#  12]+0.175*[#  16]+0.127*[#  13]+0.127*[#  17]
          +0.048*[#   8]+0.037*[#  11]+0.037*[#  15]+0.031*[#  14]+0.031*[#  18]
          +0.007*[#   9]+0.005*[#   5]+0.005*[#   7]+0.002*[#   1]+0.002*[#   6]
          
    |psi|^2 = 0.995
==== e(   8) =    -6.40878 eV ==== 
     psi = 0.215*[#  12]+0.215*[#  16]+0.139*[#  13]+0.139*[#  17]+0.104*[#   9]
          +0.055*[#   6]+0.054*[#   5]+0.023*[#  14]+0.023*[#  18]+0.015*[#   7]
          +0.003*[#   8]
    |psi|^2 = 0.985
==== e(   9) =    -5.85020 eV ==== 
     psi = 0.351*[#   7]+0.203*[#   8]+0.103*[#  13]+0.103*[#  17]+0.060*[#  12]
          +0.060*[#  16]+0.043*[#   9]+0.019*[#  10]+0.019*[#  14]+0.019*[#  18]
          +0.005*[#   5]+0.004*[#   6]+0.003*[#  11]+0.003*[#  15]
    |psi|^2 = 0.996
==== e(  10) =    -5.54378 eV ==== 
     psi = 0.327*[#  14]+0.327*[#  18]+0.116*[#   6]+0.040*[#  12]+0.040*[#  16]
          +0.034*[#   5]+0.033*[#  13]+0.033*[#  17]+0.014*[#   9]+0.009*[#  10]
          +0.004*[#   8]
    |psi|^2 = 0.979
==== e(  11) =    -5.39669 eV ==== 
     psi = 0.428*[#   9]+0.128*[#   8]+0.112*[#  14]+0.112*[#  18]+0.051*[#   5]
          +0.036*[#  13]+0.036*[#  17]+0.035*[#  12]+0.035*[#  16]+0.005*[#  11]
          +0.005*[#  15]+0.004*[#   7]
    |psi|^2 = 0.989
==== e(  12) =    -4.33737 eV ==== 
     psi = 0.161*[#  13]+0.161*[#  17]+0.160*[#  12]+0.160*[#  16]+0.159*[#   5]
          +0.093*[#   6]+0.038*[#   9]+0.036*[#   7]+0.003*[#  11]+0.003*[#  15]
          +0.003*[#   8]+0.002*[#  14]+0.002*[#  18]
    |psi|^2 = 0.984
==== e(  13) =    -4.05192 eV ==== 
     psi = 0.310*[#   8]+0.298*[#   7]+0.292*[#   5]+0.027*[#   9]+0.027*[#   6]
          +0.012*[#  10]+0.005*[#  13]+0.005*[#  17]+0.005*[#  14]+0.005*[#  18]
          +0.002*[#  12]+0.002*[#  16]
    |psi|^2 = 0.994
==== e(  14) =    -3.86284 eV ==== 
     psi = 0.553*[#   6]+0.109*[#   7]+0.082*[#  14]+0.082*[#  18]+0.076*[#   5]
          +0.058*[#   9]+0.020*[#   8]+0.005*[#  10]+0.001*[#  12]+0.001*[#  16]
          
    |psi|^2 = 0.991
==== e(  15) =    -3.50386 eV ==== 
     psi = 0.311*[#   5]+0.145*[#  13]+0.145*[#  17]+0.114*[#   6]+0.077*[#  12]
          +0.077*[#  16]+0.061*[#   7]+0.048*[#   8]+0.004*[#   9]+0.003*[#  14]
          +0.003*[#  18]
    |psi|^2 = 0.988
==== e(  16) =    -3.00206 eV ==== 
     psi = 0.188*[#   8]+0.154*[#  13]+0.154*[#  17]+0.136*[#  12]+0.136*[#  16]
          +0.108*[#   7]+0.053*[#   9]+0.019*[#  14]+0.019*[#  18]+0.010*[#   6]
          +0.004*[#  10]+0.004*[#   5]+0.002*[#  11]+0.002*[#  15]
    |psi|^2 = 0.989
==== e(  17) =    -2.54862 eV ==== 
     psi = 0.356*[#  14]+0.356*[#  18]+0.204*[#   9]+0.036*[#   8]+0.016*[#   6]
          +0.008*[#  13]+0.008*[#  17]+0.004*[#  11]+0.004*[#  15]+0.001*[#  12]
          +0.001*[#  16]
    |psi|^2 = 0.997
==== e(  18) =     2.24479 eV ==== 
     psi = 0.467*[#  10]+0.064*[#  12]+0.064*[#  16]+0.062*[#  13]+0.062*[#  17]
          +0.012*[#  11]+0.012*[#  15]+0.004*[#   7]+0.002*[#   1]+0.002*[#  14]
          +0.002*[#  18]
    |psi|^2 = 0.752
==== e(  19) =     3.19267 eV ==== 
     psi = 0.003*[#  12]+0.003*[#  16]+0.002*[#  13]+0.002*[#  17]
    |psi|^2 = 0.012
==== e(  20) =     3.85605 eV ==== 
     psi = 0.067*[#  10]+0.004*[#  12]+0.004*[#  16]+0.004*[#  13]+0.004*[#  17]
          +0.002*[#  11]+0.002*[#  15]+0.001*[#  14]+0.001*[#  18]
    |psi|^2 = 0.092

 k =   0.2166450000  0.3752401472  0.0000000000
==== e(   1) =  -106.00213 eV ==== 
     psi = 0.995*[#   1]+0.001*[#  12]+0.001*[#  16]+0.001*[#  13]+0.001*[#  17]
          
    |psi|^2 = 1.000
==== e(   2) =   -66.47570 eV ==== 
     psi = 0.999*[#   2]
    |psi|^2 = 1.000
==== e(   3) =   -66.42270 eV ==== 
     psi = 0.749*[#   4]+0.250*[#   3]
    |psi|^2 = 1.000
==== e(   4) =   -66.42250 eV ==== 
     psi = 0.749*[#   3]+0.250*[#   4]
    |psi|^2 = 1.000
==== e(   5) =   -14.93344 eV ==== 
     psi = 0.448*[#  11]+0.448*[#  15]+0.073*[#  10]+0.006*[#  12]+0.006*[#  16]
          +0.004*[#  13]+0.004*[#  14]+0.004*[#  17]+0.004*[#  18]+0.002*[#   7]
          
    |psi|^2 = 0.999
==== e(   6) =   -14.48483 eV ==== 
     psi = 0.487*[#  11]+0.487*[#  15]+0.016*[#   9]+0.003*[#   8]+0.002*[#   6]
          +0.001*[#  12]+0.001*[#  16]
    |psi|^2 = 0.999
==== e(   7) =    -6.86069 eV ==== 
     psi = 0.198*[#  10]+0.191*[#  12]+0.191*[#  16]+0.128*[#  13]+0.128*[#  17]
          +0.049*[#   8]+0.031*[#  11]+0.031*[#  15]+0.015*[#  14]+0.015*[#  18]
          +0.009*[#   9]+0.005*[#   7]+0.003*[#   5]+0.002*[#   1]
    |psi|^2 = 0.995
==== e(   8) =    -6.43969 eV ==== 
     psi = 0.232*[#  12]+0.232*[#  16]+0.152*[#  13]+0.152*[#  17]+0.060*[#   9]
          +0.057*[#   5]+0.047*[#   6]+0.017*[#  14]+0.017*[#  18]+0.015*[#   7]
          
    |psi|^2 = 0.984
==== e(   9) =    -5.86817 eV ==== 
     psi = 0.308*[#   7]+0.190*[#   8]+0.086*[#  13]+0.086*[#  17]+0.067*[#  14]
          +0.067*[#  18]+0.052*[#  12]+0.052*[#  16]+0.034*[#   9]+0.029*[#  10]
          +0.016*[#   6]+0.003*[#  11]+0.003*[#  15]
    |psi|^2 = 0.993
==== e(  10) =    -5.54505 eV ==== 
     psi = 0.317*[#  14]+0.317*[#  18]+0.084*[#   6]+0.045*[#  13]+0.045*[#  17]
          +0.045*[#   5]+0.032*[#  12]+0.032*[#  16]+0.024*[#   7]+0.019*[#   9]
          +0.015*[#   8]+0.003*[#  10]+0.002*[#  11]+0.002*[#  15]
    |psi|^2 = 0.981
==== e(  11) =    -5.49687 eV ==== 
     psi = 0.460*[#   9]+0.128*[#  14]+0.128*[#  18]+0.124*[#   8]+0.031*[#   5]
          +0.027*[#  13]+0.027*[#  17]+0.025*[#  12]+0.025*[#  16]+0.005*[#  11]
          +0.005*[#  15]+0.005*[#   6]+0.002*[#   7]
    |psi|^2 = 0.991
==== e(  12) =    -4.48276 eV ==== 
     psi = 0.176*[#  13]+0.176*[#  17]+0.164*[#  12]+0.164*[#  16]+0.136*[#   5]
          +0.084*[#   6]+0.043*[#   9]+0.031*[#   7]+0.003*[#  11]+0.003*[#  15]
          +0.001*[#   8]
    |psi|^2 = 0.983
==== e(  13) =    -4.03458 eV ==== 
     psi = 0.387*[#   7]+0.308*[#   8]+0.215*[#   5]+0.043*[#   9]+0.013*[#  10]
          +0.008*[#  13]+0.008*[#  17]+0.004*[#  12]+0.004*[#  16]+0.002*[#  14]
          +0.002*[#  18]
    |psi|^2 = 0.995
==== e(  14) =    -3.93054 eV ==== 
     psi = 0.598*[#   6]+0.150*[#   5]+0.072*[#  14]+0.072*[#  18]+0.052*[#   7]
          +0.039*[#   9]+0.004*[#  10]
    |psi|^2 = 0.991
==== e(  15) =    -3.55336 eV ==== 
     psi = 0.350*[#   5]+0.126*[#   6]+0.121*[#  13]+0.121*[#  17]+0.068*[#   7]
          +0.065*[#  12]+0.065*[#  16]+0.057*[#   8]+0.007*[#   9]+0.005*[#  14]
          +0.005*[#  18]
    |psi|^2 = 0.989
==== e(  16) =    -3.05089 eV ==== 
     psi = 0.210*[#   8]+0.156*[#  13]+0.156*[#  17]+0.136*[#  12]+0.136*[#  16]
          +0.095*[#   7]+0.060*[#   9]+0.013*[#   6]+0.009*[#  14]+0.009*[#  18]
          +0.004*[#  10]+0.003*[#   5]+0.002*[#  11]+0.002*[#  15]
    |psi|^2 = 0.990
==== e(  17) =    -2.53436 eV ==== 
     psi = 0.347*[#  14]+0.347*[#  18]+0.208*[#   9]+0.035*[#   8]+0.018*[#   6]
          +0.013*[#  13]+0.013*[#  17]+0.004*[#  11]+0.004*[#  15]+0.004*[#  12]
          +0.004*[#  16]+0.001*[#   7]
    |psi|^2 = 0.996
==== e(  18) =     2.16467 eV ==== 
     psi = 0.490*[#  10]+0.065*[#  12]+0.065*[#  16]+0.062*[#  13]+0.062*[#  17]
          +0.009*[#  11]+0.009*[#  15]+0.004*[#  14]+0.004*[#  18]+0.003*[#   7]
          +0.002*[#   1]
    |psi|^2 = 0.777
==== e(  19) =     3.22376 eV ==== 
     psi = 0.003*[#  12]+0.003*[#  16]+0.002*[#  13]+0.002*[#  17]
    |psi|^2 = 0.012
==== e(  20) =     4.11469 eV ==== 
     psi = 0.064*[#  10]+0.004*[#  12]+0.004*[#  16]+0.004*[#  13]+0.004*[#  17]
          +0.002*[#  11]+0.002*[#  15]
    |psi|^2 = 0.087

 k =   0.2333100000  0.4041047739  0.0000000000
==== e(   1) =  -106.00213 eV ==== 
     psi = 0.995*[#   1]+0.001*[#  12]+0.001*[#  16]+0.001*[#  13]+0.001*[#  17]
          
    |psi|^2 = 1.000
==== e(   2) =   -66.47570 eV ==== 
     psi = 0.999*[#   2]
    |psi|^2 = 1.000
==== e(   3) =   -66.42272 eV ==== 
     psi = 0.749*[#   4]+0.250*[#   3]
    |psi|^2 = 1.000
==== e(   4) =   -66.42252 eV ==== 
     psi = 0.749*[#   3]+0.250*[#   4]
    |psi|^2 = 1.000
==== e(   5) =   -14.84185 eV ==== 
     psi = 0.457*[#  11]+0.457*[#  15]+0.054*[#  10]+0.005*[#  12]+0.005*[#  16]
          +0.004*[#  14]+0.004*[#  18]+0.003*[#   7]+0.003*[#  13]+0.003*[#  17]
          +0.001*[#   8]
    |psi|^2 = 0.999
==== e(   6) =   -14.46433 eV ==== 
     psi = 0.487*[#  11]+0.487*[#  15]+0.017*[#   9]+0.003*[#   8]+0.002*[#   6]
          
    |psi|^2 = 0.999
==== e(   7) =    -6.96493 eV ==== 
     psi = 0.208*[#  10]+0.202*[#  12]+0.202*[#  16]+0.129*[#  13]+0.129*[#  17]
          +0.047*[#   8]+0.024*[#  11]+0.024*[#  15]+0.010*[#   9]+0.006*[#  14]
          +0.006*[#  18]+0.004*[#   7]+0.002*[#   1]+0.002*[#   5]
    |psi|^2 = 0.995
==== e(   8) =    -6.45899 eV ==== 
     psi = 0.245*[#  12]+0.245*[#  16]+0.165*[#  13]+0.165*[#  17]+0.060*[#   5]
          +0.039*[#   6]+0.025*[#   9]+0.014*[#   7]+0.011*[#  14]+0.011*[#  18]
          
    |psi|^2 = 0.983
==== e(   9) =    -5.92014 eV ==== 
     psi = 0.231*[#   7]+0.175*[#   8]+0.135*[#  14]+0.135*[#  18]+0.068*[#  13]
          +0.068*[#  17]+0.044*[#  12]+0.044*[#  16]+0.034*[#  10]+0.027*[#   6]
          +0.027*[#   9]+0.002*[#  11]+0.002*[#  15]+0.001*[#   5]
    |psi|^2 = 0.990
==== e(  10) =    -5.57445 eV ==== 
     psi = 0.481*[#   9]+0.144*[#  14]+0.144*[#  18]+0.117*[#   8]+0.019*[#  13]
          +0.019*[#  17]+0.017*[#   5]+0.016*[#  12]+0.016*[#  16]+0.010*[#   6]
          +0.005*[#  11]+0.005*[#  15]
    |psi|^2 = 0.992
==== e(  11) =    -5.52357 eV ==== 
     psi = 0.275*[#  14]+0.275*[#  18]+0.097*[#   7]+0.058*[#  13]+0.058*[#  17]
          +0.049*[#   6]+0.048*[#   5]+0.033*[#   8]+0.030*[#  12]+0.030*[#  16]
          +0.024*[#   9]+0.004*[#  11]+0.004*[#  15]
    |psi|^2 = 0.984
==== e(  12) =    -4.62796 eV ==== 
     psi = 0.188*[#  13]+0.188*[#  17]+0.167*[#  12]+0.167*[#  16]+0.112*[#   5]
          +0.074*[#   6]+0.050*[#   9]+0.026*[#   7]+0.004*[#  11]+0.004*[#  15]
          
    |psi|^2 = 0.982
==== e(  13) =    -4.03048 eV ==== 
     psi = 0.430*[#   7]+0.212*[#   8]+0.194*[#   6]+0.078*[#   9]+0.030*[#   5]
          +0.017*[#  10]+0.010*[#  13]+0.010*[#  17]+0.006*[#  12]+0.006*[#  16]
          +0.002*[#  14]+0.002*[#  18]
    |psi|^2 = 0.996
==== e(  14) =    -3.96821 eV ==== 
     psi = 0.429*[#   6]+0.333*[#   5]+0.083*[#   8]+0.060*[#  14]+0.060*[#  18]
          +0.019*[#   7]+0.003*[#   9]
    |psi|^2 = 0.991
==== e(  15) =    -3.60193 eV ==== 
     psi = 0.386*[#   5]+0.137*[#   6]+0.100*[#  13]+0.100*[#  17]+0.075*[#   7]
          +0.065*[#   8]+0.054*[#  12]+0.054*[#  16]+0.009*[#   9]+0.005*[#  14]
          +0.005*[#  18]
    |psi|^2 = 0.991
==== e(  16) =    -3.07784 eV ==== 
     psi = 0.223*[#   8]+0.158*[#  13]+0.158*[#  17]+0.135*[#  12]+0.135*[#  16]
          +0.090*[#   7]+0.062*[#   9]+0.013*[#   6]+0.004*[#  10]+0.003*[#  14]
          +0.003*[#  18]+0.002*[#   5]+0.002*[#  11]+0.002*[#  15]
    |psi|^2 = 0.991
==== e(  17) =    -2.53875 eV ==== 
     psi = 0.336*[#  14]+0.336*[#  18]+0.211*[#   9]+0.035*[#   8]+0.019*[#   6]
          +0.017*[#  13]+0.017*[#  17]+0.007*[#  12]+0.007*[#  16]+0.003*[#  11]
          +0.003*[#  15]+0.001*[#   7]
    |psi|^2 = 0.996
==== e(  18) =     2.09029 eV ==== 
     psi = 0.508*[#  10]+0.065*[#  12]+0.065*[#  16]+0.062*[#  13]+0.062*[#  17]
          +0.007*[#  11]+0.007*[#  15]+0.006*[#  14]+0.006*[#  18]+0.003*[#   7]
          +0.003*[#   1]+0.001*[#   6]
    |psi|^2 = 0.794
==== e(  19) =     3.27904 eV ==== 
     psi = 0.003*[#  12]+0.003*[#  16]+0.003*[#  13]+0.003*[#  17]
    |psi|^2 = 0.013
==== e(  20) =     4.38143 eV ==== 
     psi = 0.062*[#  10]+0.004*[#  12]+0.004*[#  16]+0.004*[#  13]+0.004*[#  17]
          +0.001*[#  11]+0.001*[#  15]
    |psi|^2 = 0.083

 k =   0.2499750000  0.4329694006  0.0000000000
==== e(   1) =  -106.00213 eV ==== 
     psi = 0.995*[#   1]+0.001*[#  12]+0.001*[#  16]+0.001*[#  13]+0.001*[#  17]
          
    |psi|^2 = 1.000
==== e(   2) =   -66.47569 eV ==== 
     psi = 0.999*[#   2]
    |psi|^2 = 1.000
==== e(   3) =   -66.42273 eV ==== 
     psi = 0.749*[#   4]+0.250*[#   3]
    |psi|^2 = 1.000
==== e(   4) =   -66.42255 eV ==== 
     psi = 0.749*[#   3]+0.250*[#   4]
    |psi|^2 = 1.000
==== e(   5) =   -14.75727 eV ==== 
     psi = 0.466*[#  11]+0.466*[#  15]+0.038*[#  10]+0.004*[#  12]+0.004*[#  16]
          +0.004*[#   7]+0.004*[#  14]+0.004*[#  18]+0.003*[#  13]+0.003*[#  17]
          +0.002*[#   8]
    |psi|^2 = 0.999
==== e(   6) =   -14.45117 eV ==== 
     psi = 0.488*[#  11]+0.488*[#  15]+0.017*[#   9]+0.003*[#   8]+0.002*[#   6]
          
    |psi|^2 = 0.999
==== e(   7) =    -7.04475 eV ==== 
     psi = 0.220*[#  10]+0.208*[#  12]+0.208*[#  16]+0.130*[#  13]+0.130*[#  17]
          +0.043*[#   8]+0.018*[#  11]+0.018*[#  15]+0.010*[#   9]+0.003*[#   7]
          +0.002*[#  14]+0.002*[#  18]+0.002*[#   1]+0.001*[#   5]
    |psi|^2 = 0.996
==== e(   8) =    -6.46713 eV ==== 
     psi = 0.253*[#  12]+0.253*[#  16]+0.175*[#  13]+0.175*[#  17]+0.062*[#   5]
          +0.031*[#   6]+0.013*[#   7]+0.006*[#  14]+0.006*[#  18]+0.004*[#   9]
          +0.003*[#   8]
    |psi|^2 = 0.982
==== e(   9) =    -6.00108 eV ==== 
     psi = 0.194*[#  14]+0.194*[#  18]+0.163*[#   8]+0.156*[#   7]+0.054*[#  13]
          +0.054*[#  17]+0.039*[#  12]+0.039*[#  16]+0.037*[#  10]+0.029*[#   6]
          +0.022*[#   9]+0.005*[#   5]
    |psi|^2 = 0.988
==== e(  10) =    -5.62637 eV ==== 
     psi = 0.487*[#   9]+0.159*[#  14]+0.159*[#  18]+0.108*[#   8]+0.018*[#   6]
          +0.012*[#  13]+0.012*[#  17]+0.010*[#  12]+0.010*[#  16]+0.007*[#   5]
          +0.005*[#  11]+0.005*[#  15]
    |psi|^2 = 0.993
==== e(  11) =    -5.49574 eV ==== 
     psi = 0.229*[#  14]+0.229*[#  18]+0.183*[#   7]+0.067*[#  13]+0.067*[#  17]
          +0.049*[#   8]+0.045*[#   5]+0.029*[#  12]+0.029*[#  16]+0.025*[#   9]
          +0.023*[#   6]+0.006*[#  11]+0.006*[#  15]
    |psi|^2 = 0.987
==== e(  12) =    -4.77237 eV ==== 
     psi = 0.198*[#  13]+0.198*[#  17]+0.171*[#  12]+0.171*[#  16]+0.088*[#   5]
          +0.064*[#   6]+0.059*[#   9]+0.022*[#   7]+0.004*[#  11]+0.004*[#  15]
          +0.002*[#  14]+0.002*[#  18]
    |psi|^2 = 0.982
==== e(  13) =    -4.05479 eV ==== 
     psi = 0.516*[#   6]+0.250*[#   7]+0.078*[#   9]+0.073*[#   8]+0.019*[#   5]
          +0.015*[#  10]+0.009*[#  14]+0.009*[#  18]+0.007*[#  13]+0.007*[#  17]
          +0.005*[#  12]+0.005*[#  16]
    |psi|^2 = 0.995
==== e(  14) =    -3.95542 eV ==== 
     psi = 0.345*[#   5]+0.220*[#   8]+0.187*[#   7]+0.132*[#   6]+0.043*[#  14]
          +0.043*[#  18]+0.007*[#   9]+0.005*[#  13]+0.005*[#  17]+0.002*[#  12]
          +0.002*[#  16]+0.001*[#  10]
    |psi|^2 = 0.993
==== e(  15) =    -3.64711 eV ==== 
     psi = 0.418*[#   5]+0.147*[#   6]+0.081*[#  13]+0.081*[#  17]+0.081*[#   7]
          +0.072*[#   8]+0.045*[#  12]+0.045*[#  16]+0.011*[#   9]+0.005*[#  14]
          +0.005*[#  18]
    |psi|^2 = 0.992
==== e(  16) =    -3.08547 eV ==== 
     psi = 0.224*[#   8]+0.163*[#  13]+0.163*[#  17]+0.135*[#  12]+0.135*[#  16]
          +0.090*[#   7]+0.061*[#   9]+0.011*[#   6]+0.004*[#  10]+0.002*[#  11]
          +0.002*[#  15]+0.001*[#   5]
    |psi|^2 = 0.991
==== e(  17) =    -2.56358 eV ==== 
     psi = 0.325*[#  14]+0.325*[#  18]+0.215*[#   9]+0.036*[#   8]+0.022*[#  13]
          +0.022*[#  17]+0.020*[#   6]+0.011*[#  12]+0.011*[#  16]+0.003*[#  11]
          +0.003*[#  15]+0.001*[#   7]
    |psi|^2 = 0.995
==== e(  18) =     2.02369 eV ==== 
     psi = 0.521*[#  10]+0.065*[#  12]+0.065*[#  16]+0.060*[#  13]+0.060*[#  17]
          +0.009*[#  14]+0.009*[#  18]+0.005*[#  11]+0.005*[#  15]+0.003*[#   1]
          +0.002*[#   7]+0.002*[#   6]
    |psi|^2 = 0.804
==== e(  19) =     3.36619 eV ==== 
     psi = 0.003*[#  12]+0.003*[#  13]+0.003*[#  16]+0.003*[#  17]
    |psi|^2 = 0.014
==== e(  20) =     4.63383 eV ==== 
     psi = 0.058*[#  10]+0.004*[#  12]+0.004*[#  13]+0.004*[#  16]+0.004*[#  17]
          +0.001*[#  14]+0.001*[#  18]+0.001*[#  11]+0.001*[#  15]
    |psi|^2 = 0.080

 k =   0.2666400000  0.4618340273  0.0000000000
==== e(   1) =  -106.00213 eV ==== 
     psi = 0.995*[#   1]+0.001*[#  12]+0.001*[#  16]
    |psi|^2 = 1.000
==== e(   2) =   -66.47569 eV ==== 
     psi = 0.999*[#   2]
    |psi|^2 = 1.000
==== e(   3) =   -66.42273 eV ==== 
     psi = 0.749*[#   4]+0.250*[#   3]
    |psi|^2 = 1.000
==== e(   4) =   -66.42257 eV ==== 
     psi = 0.749*[#   3]+0.250*[#   4]
    |psi|^2 = 1.000
==== e(   5) =   -14.68179 eV ==== 
     psi = 0.474*[#  11]+0.474*[#  15]+0.024*[#  10]+0.005*[#   7]+0.004*[#  12]
          +0.004*[#  16]+0.003*[#  14]+0.003*[#  18]+0.002*[#   8]+0.002*[#  13]
          +0.002*[#  17]
    |psi|^2 = 0.998
==== e(   6) =   -14.44574 eV ==== 
     psi = 0.488*[#  11]+0.488*[#  15]+0.017*[#   9]+0.003*[#   8]+0.002*[#   6]
          
    |psi|^2 = 0.999
==== e(   7) =    -7.09398 eV ==== 
     psi = 0.232*[#  10]+0.212*[#  12]+0.212*[#  16]+0.131*[#  13]+0.131*[#  17]
          +0.037*[#   8]+0.012*[#  11]+0.012*[#  15]+0.009*[#   9]+0.002*[#   7]
          +0.002*[#   1]+0.001*[#   6]
    |psi|^2 = 0.996
==== e(   8) =    -6.46618 eV ==== 
     psi = 0.252*[#  12]+0.252*[#  16]+0.183*[#  13]+0.183*[#  17]+0.062*[#   5]
          +0.023*[#   6]+0.012*[#   7]+0.010*[#   8]+0.002*[#  14]+0.002*[#  18]
          
    |psi|^2 = 0.982
==== e(   9) =    -6.10217 eV ==== 
     psi = 0.236*[#  14]+0.236*[#  18]+0.153*[#   8]+0.099*[#   7]+0.047*[#  13]
          +0.047*[#  17]+0.038*[#  12]+0.038*[#  16]+0.037*[#  10]+0.025*[#   6]
          +0.020*[#   9]+0.009*[#   5]
    |psi|^2 = 0.987
==== e(  10) =    -5.64973 eV ==== 
     psi = 0.474*[#   9]+0.174*[#  14]+0.174*[#  18]+0.095*[#   8]+0.026*[#   6]
          +0.011*[#  12]+0.011*[#  16]+0.009*[#  13]+0.009*[#  17]+0.005*[#  11]
          +0.005*[#  15]+0.001*[#   5]
    |psi|^2 = 0.994
==== e(  11) =    -5.47241 eV ==== 
     psi = 0.264*[#   7]+0.188*[#  14]+0.188*[#  18]+0.071*[#  13]+0.071*[#  17]
          +0.064*[#   8]+0.039*[#   5]+0.030*[#  12]+0.030*[#  16]+0.025*[#   9]
          +0.007*[#   6]+0.007*[#  11]+0.007*[#  15]
    |psi|^2 = 0.990
==== e(  12) =    -4.91443 eV ==== 
     psi = 0.205*[#  13]+0.205*[#  17]+0.174*[#  12]+0.174*[#  16]+0.070*[#   9]
          +0.067*[#   5]+0.055*[#   6]+0.017*[#   7]+0.004*[#  11]+0.004*[#  14]
          +0.004*[#  15]+0.004*[#  18]
    |psi|^2 = 0.982
==== e(  13) =    -4.07642 eV ==== 
     psi = 0.628*[#   6]+0.141*[#   7]+0.074*[#   5]+0.072*[#   9]+0.034*[#   8]
          +0.013*[#  10]+0.007*[#  14]+0.007*[#  18]+0.005*[#  13]+0.005*[#  17]
          +0.004*[#  12]+0.004*[#  16]
    |psi|^2 = 0.994
==== e(  14) =    -3.92412 eV ==== 
     psi = 0.293*[#   5]+0.268*[#   8]+0.267*[#   7]+0.042*[#   6]+0.041*[#  14]
          +0.041*[#  18]+0.019*[#   9]+0.007*[#  13]+0.007*[#  17]+0.003*[#  12]
          +0.003*[#  16]+0.002*[#  10]
    |psi|^2 = 0.994
==== e(  15) =    -3.68750 eV ==== 
     psi = 0.445*[#   5]+0.156*[#   6]+0.086*[#   7]+0.077*[#   8]+0.067*[#  13]
          +0.067*[#  17]+0.038*[#  12]+0.038*[#  16]+0.012*[#   9]+0.003*[#  14]
          +0.003*[#  18]
    |psi|^2 = 0.993
==== e(  16) =    -3.07544 eV ==== 
     psi = 0.216*[#   8]+0.169*[#  13]+0.169*[#  17]+0.134*[#  12]+0.134*[#  16]
          +0.096*[#   7]+0.056*[#   9]+0.006*[#   6]+0.003*[#  10]+0.002*[#  11]
          +0.002*[#  15]
    |psi|^2 = 0.991
==== e(  17) =    -2.60794 eV ==== 
     psi = 0.314*[#  14]+0.314*[#  18]+0.219*[#   9]+0.036*[#   8]+0.026*[#  13]
          +0.026*[#  17]+0.020*[#   6]+0.015*[#  12]+0.015*[#  16]+0.003*[#  11]
          +0.003*[#  15]+0.001*[#   7]
    |psi|^2 = 0.993
==== e(  18) =     1.96782 eV ==== 
     psi = 0.529*[#  10]+0.064*[#  12]+0.064*[#  16]+0.057*[#  13]+0.057*[#  17]
          +0.012*[#  14]+0.012*[#  18]+0.003*[#  11]+0.003*[#  15]+0.003*[#   1]
          +0.002*[#   6]+0.002*[#   7]
    |psi|^2 = 0.808
==== e(  19) =     3.48796 eV ==== 
     psi = 0.003*[#  13]+0.003*[#  17]+0.003*[#  12]+0.003*[#  16]
    |psi|^2 = 0.015
==== e(  20) =     4.73291 eV ==== 
     psi = 0.023*[#  10]+0.005*[#  14]+0.005*[#  18]+0.003*[#  13]+0.003*[#  17]
          +0.002*[#  12]+0.002*[#  16]
    |psi|^2 = 0.044

 k =   0.2833050000  0.4906986540  0.0000000000
==== e(   1) =  -106.00213 eV ==== 
     psi = 0.995*[#   1]+0.001*[#  12]+0.001*[#  16]
    |psi|^2 = 1.000
==== e(   2) =   -66.47568 eV ==== 
     psi = 0.999*[#   2]
    |psi|^2 = 1.000
==== e(   3) =   -66.42273 eV ==== 
     psi = 0.749*[#   4]+0.250*[#   3]
    |psi|^2 = 1.000
==== e(   4) =   -66.42260 eV ==== 
     psi = 0.749*[#   3]+0.250*[#   4]
    |psi|^2 = 1.000
==== e(   5) =   -14.61710 eV ==== 
     psi = 0.480*[#  11]+0.480*[#  15]+0.013*[#  10]+0.007*[#   7]+0.003*[#  14]
          +0.003*[#  18]+0.003*[#   8]+0.003*[#  12]+0.003*[#  16]+0.002*[#  13]
          +0.002*[#  17]
    |psi|^2 = 0.998
==== e(   6) =   -14.44801 eV ==== 
     psi = 0.488*[#  11]+0.488*[#  15]+0.016*[#   9]+0.003*[#   8]+0.002*[#   6]
          
    |psi|^2 = 0.999
==== e(   7) =    -7.11082 eV ==== 
     psi = 0.246*[#  10]+0.212*[#  12]+0.212*[#  16]+0.132*[#  13]+0.132*[#  17]
          +0.030*[#   8]+0.008*[#   9]+0.007*[#  11]+0.007*[#  15]+0.003*[#  14]
          +0.003*[#  18]+0.002*[#   6]+0.002*[#   1]+0.001*[#   7]
    |psi|^2 = 0.996
==== e(   8) =    -6.45981 eV ==== 
     psi = 0.243*[#  12]+0.243*[#  16]+0.187*[#  13]+0.187*[#  17]+0.061*[#   5]
          +0.019*[#   8]+0.015*[#   6]+0.015*[#   9]+0.011*[#   7]
    |psi|^2 = 0.983
==== e(   9) =    -6.21371 eV ==== 
     psi = 0.262*[#  14]+0.262*[#  18]+0.148*[#   8]+0.059*[#   7]+0.043*[#  13]
          +0.043*[#  17]+0.041*[#  12]+0.041*[#  16]+0.034*[#  10]+0.020*[#   9]
          +0.020*[#   6]+0.013*[#   5]
    |psi|^2 = 0.987
==== e(  10) =    -5.64187 eV ==== 
     psi = 0.442*[#   9]+0.186*[#  14]+0.186*[#  18]+0.079*[#   8]+0.034*[#   6]
          +0.017*[#  12]+0.017*[#  16]+0.010*[#  13]+0.010*[#  17]+0.005*[#  11]
          +0.005*[#  15]+0.002*[#   7]
    |psi|^2 = 0.994
==== e(  11) =    -5.45763 eV ==== 
     psi = 0.331*[#   7]+0.154*[#  14]+0.154*[#  18]+0.076*[#   8]+0.072*[#  13]
          +0.072*[#  17]+0.031*[#   5]+0.030*[#  12]+0.030*[#  16]+0.024*[#   9]
[...]
==== e(   2) =   -64.96626 eV ==== 
     psi = 0.999*[#   2]
    |psi|^2 = 1.000
==== e(   3) =   -64.95529 eV ==== 
     psi = 0.750*[#   3]+0.250*[#   4]
    |psi|^2 = 1.000
==== e(   4) =   -64.95525 eV ==== 
     psi = 0.750*[#   4]+0.250*[#   3]
    |psi|^2 = 1.000
==== e(   5) =   -15.49307 eV ==== 
     psi = 0.367*[#  11]+0.367*[#  15]+0.249*[#  10]+0.005*[#  14]+0.005*[#  18]
          +0.002*[#  13]+0.002*[#  17]+0.001*[#   1]
    |psi|^2 = 1.000
==== e(   6) =   -14.55430 eV ==== 
     psi = 0.493*[#  11]+0.493*[#  15]+0.002*[#  14]+0.002*[#  18]+0.002*[#   5]
          +0.002*[#  13]+0.002*[#  17]
    |psi|^2 = 0.997
==== e(   7) =    -6.56772 eV ==== 
     psi = 0.340*[#  14]+0.340*[#  18]+0.082*[#  10]+0.062*[#   9]+0.039*[#  11]
          +0.039*[#  15]+0.037*[#  13]+0.037*[#  17]+0.011*[#   7]+0.002*[#   1]
          +0.001*[#  12]+0.001*[#  16]
    |psi|^2 = 0.994
==== e(   8) =    -4.83999 eV ==== 
     psi = 0.322*[#   5]+0.215*[#  13]+0.215*[#  17]+0.066*[#  14]+0.066*[#  18]
          +0.062*[#   7]+0.025*[#   9]+0.005*[#  12]+0.005*[#  16]+0.004*[#   8]
          
    |psi|^2 = 0.987
==== e(   9) =    -4.56444 eV ==== 
     psi = 0.362*[#   6]+0.239*[#  12]+0.239*[#  16]+0.127*[#   8]+0.006*[#   9]
          +0.006*[#  13]+0.006*[#  17]+0.003*[#   7]
    |psi|^2 = 0.988
==== e(  10) =    -3.66084 eV ==== 
     psi = 0.289*[#   9]+0.189*[#  13]+0.189*[#  17]+0.130*[#   7]+0.094*[#   5]
          +0.024*[#   8]+0.024*[#  10]+0.008*[#  11]+0.008*[#  15]+0.008*[#  14]
          +0.008*[#  18]+0.004*[#  12]+0.004*[#  16]
    |psi|^2 = 0.982
==== e(  11) =    -3.47126 eV ==== 
     psi = 0.616*[#   8]+0.173*[#   6]+0.080*[#  12]+0.080*[#  16]+0.016*[#   9]
          +0.016*[#   7]+0.002*[#  13]+0.002*[#  17]
    |psi|^2 = 0.985
==== e(  12) =    -3.39779 eV ==== 
     psi = 0.420*[#  14]+0.420*[#  18]+0.050*[#  13]+0.050*[#  17]+0.024*[#   7]
          +0.016*[#   5]+0.002*[#   9]+0.001*[#  11]+0.002*[#  12]+0.001*[#  15]
          +0.002*[#  16]
    |psi|^2 = 0.989
==== e(  13) =    -3.28572 eV ==== 
     psi = 0.697*[#   7]+0.160*[#   9]+0.022*[#  13]+0.022*[#  17]+0.019*[#  10]
          +0.018*[#   5]+0.016*[#  14]+0.016*[#  18]+0.005*[#  11]+0.005*[#  15]
          +0.004*[#   8]
    |psi|^2 = 0.985
==== e(  14) =    -2.76680 eV ==== 
     psi = 0.410*[#   9]+0.224*[#  13]+0.224*[#  17]+0.034*[#  14]+0.034*[#  18]
          +0.025*[#   7]+0.019*[#   8]+0.005*[#  12]+0.005*[#  16]+0.002*[#   5]
          +0.001*[#  10]+0.001*[#  11]+0.001*[#  15]
    |psi|^2 = 0.987
==== e(  15) =    -2.65253 eV ==== 
     psi = 0.396*[#  12]+0.396*[#  16]+0.160*[#   8]+0.010*[#  13]+0.010*[#  17]
          +0.005*[#   9]+0.004*[#   7]
    |psi|^2 = 0.980
==== e(  16) =    -1.23302 eV ==== 
     psi = 0.527*[#   5]+0.183*[#  13]+0.183*[#  17]+0.026*[#  14]+0.026*[#  18]
          +0.009*[#   7]+0.007*[#   9]+0.004*[#  12]+0.004*[#  16]+0.004*[#  11]
          +0.004*[#  15]
    |psi|^2 = 0.979
==== e(  17) =    -0.94410 eV ==== 
     psi = 0.451*[#   6]+0.249*[#  12]+0.249*[#  16]+0.030*[#   8]+0.006*[#  13]
          +0.006*[#  17]+0.002*[#   9]
    |psi|^2 = 0.994
==== e(  18) =     2.22627 eV ==== 
     psi = 0.302*[#  10]+0.037*[#  11]+0.037*[#  15]+0.036*[#  14]+0.036*[#  18]
          +0.016*[#  13]+0.016*[#  17]
    |psi|^2 = 0.483
==== e(  19) =     2.85475 eV ==== 
 
    |psi|^2 = 0.002
==== e(  20) =     3.09405 eV ==== 
     psi = 0.033*[#  10]+0.010*[#  13]+0.010*[#  17]+0.004*[#  11]+0.004*[#  15]
          +0.004*[#  14]+0.004*[#  18]+0.002*[#   5]
    |psi|^2 = 0.074

 k =   0.0750000000  0.0433012702  0.0000000000
==== e(   1) =  -104.63144 eV ==== 
     psi = 0.996*[#   1]+0.002*[#  14]+0.002*[#  18]
    |psi|^2 = 1.000
==== e(   2) =   -64.96626 eV ==== 
     psi = 0.999*[#   2]
    |psi|^2 = 1.000
==== e(   3) =   -64.95527 eV ==== 
     psi = 0.750*[#   3]+0.250*[#   4]
    |psi|^2 = 1.000
==== e(   4) =   -64.95525 eV ==== 
     psi = 0.750*[#   4]+0.250*[#   3]
    |psi|^2 = 1.000
==== e(   5) =   -15.52701 eV ==== 
     psi = 0.365*[#  11]+0.365*[#  15]+0.256*[#  10]+0.005*[#  14]+0.005*[#  18]
          +0.002*[#  13]+0.002*[#  17]+0.001*[#   1]
    |psi|^2 = 1.000
==== e(   6) =   -14.57291 eV ==== 
     psi = 0.494*[#  11]+0.494*[#  15]+0.002*[#  14]+0.002*[#  18]+0.001*[#  13]
          +0.001*[#  17]+0.001*[#   5]
    |psi|^2 = 0.997
==== e(   7) =    -6.60027 eV ==== 
     psi = 0.341*[#  14]+0.341*[#  18]+0.079*[#  10]+0.064*[#   9]+0.039*[#  11]
          +0.039*[#  15]+0.037*[#  13]+0.037*[#  17]+0.010*[#   7]+0.002*[#   1]
          +0.001*[#  12]+0.001*[#  16]
    |psi|^2 = 0.994
==== e(   8) =    -4.73275 eV ==== 
     psi = 0.356*[#   5]+0.209*[#  13]+0.209*[#  17]+0.066*[#   7]+0.053*[#  14]
          +0.053*[#  18]+0.025*[#   9]+0.005*[#  12]+0.005*[#  16]+0.004*[#   8]
          
    |psi|^2 = 0.988
==== e(   9) =    -4.56787 eV ==== 
     psi = 0.362*[#   6]+0.234*[#  12]+0.234*[#  16]+0.136*[#   8]+0.006*[#   9]
          +0.006*[#  13]+0.006*[#  17]+0.004*[#   7]
    |psi|^2 = 0.988
==== e(  10) =    -3.50231 eV ==== 
     psi = 0.276*[#   9]+0.272*[#   7]+0.141*[#  13]+0.141*[#  17]+0.073*[#   5]
          +0.032*[#   8]+0.012*[#  14]+0.012*[#  18]+0.012*[#  10]+0.004*[#  11]
          +0.004*[#  15]+0.004*[#  12]+0.004*[#  16]
    |psi|^2 = 0.984
==== e(  11) =    -3.44546 eV ==== 
     psi = 0.423*[#  14]+0.423*[#  18]+0.046*[#   5]+0.028*[#   9]+0.028*[#  13]
          +0.028*[#  17]+0.004*[#   7]+0.002*[#  11]+0.002*[#  15]+0.002*[#  10]
          +0.002*[#   8]
    |psi|^2 = 0.990
==== e(  12) =    -3.42008 eV ==== 
     psi = 0.662*[#   8]+0.179*[#   6]+0.053*[#  12]+0.053*[#  16]+0.018*[#   9]
          +0.018*[#   7]+0.001*[#  13]+0.001*[#  17]
    |psi|^2 = 0.985
==== e(  13) =    -3.26656 eV ==== 
     psi = 0.579*[#   7]+0.280*[#   9]+0.025*[#  13]+0.025*[#  17]+0.023*[#  10]
          +0.016*[#  14]+0.016*[#  18]+0.007*[#   5]+0.006*[#  11]+0.006*[#  15]
          +0.001*[#   8]
    |psi|^2 = 0.985
==== e(  14) =    -2.72732 eV ==== 
     psi = 0.293*[#  13]+0.293*[#  17]+0.271*[#   9]+0.039*[#  14]+0.039*[#  18]
          +0.018*[#   7]+0.013*[#   8]+0.007*[#  12]+0.007*[#  16]+0.001*[#   5]
          +0.001*[#  10]+0.001*[#  11]+0.001*[#  15]
    |psi|^2 = 0.985
==== e(  15) =    -2.64047 eV ==== 
     psi = 0.427*[#  12]+0.427*[#  16]+0.098*[#   8]+0.010*[#  13]+0.010*[#  17]
          +0.003*[#   9]+0.003*[#   7]
    |psi|^2 = 0.980
==== e(  16) =    -1.10491 eV ==== 
     psi = 0.497*[#   5]+0.200*[#  13]+0.200*[#  17]+0.026*[#  14]+0.026*[#  18]
          +0.010*[#   7]+0.009*[#   9]+0.005*[#  12]+0.005*[#  16]+0.002*[#  11]
          +0.002*[#  15]
    |psi|^2 = 0.982
==== e(  17) =    -0.92339 eV ==== 
     psi = 0.443*[#   6]+0.250*[#  12]+0.250*[#  16]+0.036*[#   8]+0.006*[#  13]
          +0.006*[#  17]+0.002*[#   9]
    |psi|^2 = 0.994
==== e(  18) =     2.09838 eV ==== 
     psi = 0.330*[#  10]+0.044*[#  11]+0.044*[#  15]+0.040*[#  14]+0.040*[#  18]
          +0.013*[#  13]+0.013*[#  17]
    |psi|^2 = 0.526
==== e(  19) =     2.81119 eV ==== 
 
    |psi|^2 = 0.002
==== e(  20) =     2.94405 eV ==== 
     psi = 0.005*[#  13]+0.005*[#  17]+0.002*[#   5]+0.002*[#  10]+0.001*[#  14]
          +0.001*[#  18]+0.001*[#  11]+0.001*[#  15]
    |psi|^2 = 0.021

 k =   0.0500000000  0.0288675135  0.0000000000
==== e(   1) =  -104.63144 eV ==== 
     psi = 0.996*[#   1]+0.002*[#  14]+0.002*[#  18]
    |psi|^2 = 1.000
==== e(   2) =   -64.96626 eV ==== 
     psi = 0.999*[#   2]
    |psi|^2 = 1.000
==== e(   3) =   -64.95525 eV ==== 
     psi = 0.750*[#   3]+0.250*[#   4]
    |psi|^2 = 1.000
==== e(   4) =   -64.95524 eV ==== 
     psi = 0.750*[#   4]+0.250*[#   3]
    |psi|^2 = 1.000
==== e(   5) =   -15.55151 eV ==== 
     psi = 0.363*[#  11]+0.363*[#  15]+0.262*[#  10]+0.005*[#  14]+0.005*[#  18]
          +0.001*[#   1]
    |psi|^2 = 1.000
==== e(   6) =   -14.58652 eV ==== 
     psi = 0.495*[#  11]+0.495*[#  15]+0.003*[#  14]+0.003*[#  18]
    |psi|^2 = 0.997
==== e(   7) =    -6.62428 eV ==== 
     psi = 0.342*[#  14]+0.342*[#  18]+0.077*[#  10]+0.066*[#   9]+0.039*[#  11]
          +0.039*[#  15]+0.037*[#  13]+0.037*[#  17]+0.010*[#   7]+0.002*[#   1]
          +0.001*[#  12]+0.001*[#  16]
    |psi|^2 = 0.994
==== e(   8) =    -4.64779 eV ==== 
     psi = 0.386*[#   5]+0.206*[#  13]+0.206*[#  17]+0.070*[#   7]+0.040*[#  14]
          +0.040*[#  18]+0.025*[#   9]+0.005*[#  12]+0.005*[#  16]+0.004*[#   8]
          
    |psi|^2 = 0.988
==== e(   9) =    -4.57039 eV ==== 
     psi = 0.363*[#   6]+0.231*[#  12]+0.231*[#  16]+0.142*[#   8]+0.006*[#   9]
          +0.006*[#  13]+0.006*[#  17]+0.004*[#   7]
    |psi|^2 = 0.988
==== e(  10) =    -3.50258 eV ==== 
     psi = 0.412*[#  14]+0.412*[#  18]+0.062*[#  13]+0.062*[#  17]+0.025*[#   7]
          +0.006*[#   9]+0.003*[#   5]+0.002*[#  11]+0.002*[#  12]+0.002*[#  15]
          +0.002*[#  16]+0.002*[#   8]
    |psi|^2 = 0.992
==== e(  11) =    -3.39558 eV ==== 
     psi = 0.498*[#   7]+0.199*[#   9]+0.119*[#   5]+0.038*[#   8]+0.037*[#  13]
          +0.037*[#  17]+0.025*[#  14]+0.025*[#  18]+0.003*[#  10]+0.001*[#  11]
          +0.001*[#  15]
    |psi|^2 = 0.985
==== e(  12) =    -3.38073 eV ==== 
     psi = 0.702*[#   8]+0.185*[#   6]+0.030*[#  12]+0.030*[#  16]+0.019*[#   9]
          +0.019*[#   7]
    |psi|^2 = 0.985
==== e(  13) =    -3.23525 eV ==== 
     psi = 0.512*[#   9]+0.336*[#   7]+0.027*[#  10]+0.026*[#  13]+0.026*[#  17]
          +0.021*[#  14]+0.021*[#  18]+0.007*[#  11]+0.007*[#  15]
    |psi|^2 = 0.986
==== e(  14) =    -2.68271 eV ==== 
     psi = 0.363*[#  13]+0.363*[#  17]+0.132*[#   9]+0.044*[#  14]+0.044*[#  18]
          +0.010*[#   7]+0.008*[#  12]+0.008*[#  16]+0.006*[#   8]+0.001*[#  10]
          
    |psi|^2 = 0.983
==== e(  15) =    -2.63367 eV ==== 
     psi = 0.454*[#  12]+0.454*[#  16]+0.047*[#   8]+0.011*[#  13]+0.011*[#  17]
          +0.001*[#   9]+0.001*[#   7]
    |psi|^2 = 0.980
==== e(  16) =    -0.99440 eV ==== 
     psi = 0.475*[#   5]+0.213*[#  13]+0.213*[#  17]+0.026*[#  14]+0.026*[#  18]
          +0.011*[#   7]+0.010*[#   9]+0.005*[#  12]+0.005*[#  16]+0.001*[#  11]
          +0.001*[#  15]
    |psi|^2 = 0.988
==== e(  17) =    -0.90659 eV ==== 
     psi = 0.437*[#   6]+0.250*[#  12]+0.250*[#  16]+0.042*[#   8]+0.006*[#  13]
          +0.006*[#  17]+0.003*[#   9]+0.001*[#   7]
    |psi|^2 = 0.995
==== e(  18) =     1.99323 eV ==== 
     psi = 0.354*[#  10]+0.050*[#  11]+0.050*[#  15]+0.043*[#  14]+0.043*[#  18]
          +0.009*[#  13]+0.009*[#  17]
    |psi|^2 = 0.561
==== e(  19) =     2.76078 eV ==== 
     psi = 0.002*[#  13]+0.002*[#  17]+0.002*[#  14]+0.002*[#  18]
    |psi|^2 = 0.010
==== e(  20) =     2.79347 eV ==== 
     psi = 0.001*[#   5]
    |psi|^2 = 0.004

 k =   0.0250000000  0.0144337567  0.0000000000
==== e(   1) =  -104.63144 eV ==== 
     psi = 0.996*[#   1]+0.002*[#  14]+0.002*[#  18]
    |psi|^2 = 1.000
==== e(   2) =   -64.96627 eV ==== 
     psi = 0.999*[#   2]
    |psi|^2 = 1.000
==== e(   3) =   -64.95524 eV ==== 
     psi = 0.750*[#   3]+0.249*[#   4]
    |psi|^2 = 1.000
==== e(   4) =   -64.95524 eV ==== 
     psi = 0.750*[#   4]+0.249*[#   3]
    |psi|^2 = 1.000
==== e(   5) =   -15.56632 eV ==== 
     psi = 0.361*[#  11]+0.361*[#  15]+0.265*[#  10]+0.005*[#  14]+0.005*[#  18]
          +0.001*[#   1]
    |psi|^2 = 1.000
==== e(   6) =   -14.59480 eV ==== 
     psi = 0.495*[#  11]+0.495*[#  15]+0.003*[#  14]+0.003*[#  18]
    |psi|^2 = 0.997
==== e(   7) =    -6.63897 eV ==== 
     psi = 0.342*[#  14]+0.342*[#  18]+0.076*[#  10]+0.067*[#   9]+0.039*[#  11]
          +0.039*[#  15]+0.037*[#  13]+0.037*[#  17]+0.009*[#   7]+0.003*[#   1]
          +0.001*[#  12]+0.001*[#  16]
    |psi|^2 = 0.994
==== e(   8) =    -4.59206 eV ==== 
     psi = 0.407*[#   5]+0.206*[#  13]+0.206*[#  17]+0.073*[#   7]+0.028*[#  14]
          +0.028*[#  18]+0.026*[#   9]+0.005*[#  12]+0.005*[#  16]+0.005*[#   8]
          
    |psi|^2 = 0.988
==== e(   9) =    -4.57194 eV ==== 
     psi = 0.363*[#   6]+0.229*[#  12]+0.229*[#  16]+0.146*[#   8]+0.007*[#   9]
          +0.006*[#  13]+0.006*[#  17]+0.004*[#   7]
    |psi|^2 = 0.988
==== e(  10) =    -3.53660 eV ==== 
     psi = 0.438*[#  14]+0.438*[#  18]+0.050*[#  13]+0.050*[#  17]+0.004*[#   7]
          +0.002*[#  11]+0.002*[#  15]+0.002*[#   5]+0.002*[#  12]+0.002*[#  16]
          
    |psi|^2 = 0.993
==== e(  11) =    -3.35675 eV ==== 
     psi = 0.705*[#   7]+0.108*[#   5]+0.100*[#   9]+0.038*[#   8]+0.013*[#  13]
          +0.013*[#  17]+0.004*[#  14]+0.004*[#  18]
    |psi|^2 = 0.986
==== e(  12) =    -3.35583 eV ==== 
     psi = 0.729*[#   8]+0.189*[#   6]+0.020*[#   9]+0.019*[#   7]+0.014*[#  12]
          +0.014*[#  16]
    |psi|^2 = 0.986
==== e(  13) =    -3.20103 eV ==== 
     psi = 0.712*[#   9]+0.154*[#   7]+0.026*[#  10]+0.023*[#  14]+0.023*[#  18]
          +0.012*[#  13]+0.012*[#  17]+0.007*[#   8]+0.007*[#  11]+0.007*[#  15]
          +0.005*[#   5]
    |psi|^2 = 0.987
==== e(  14) =    -2.64478 eV ==== 
     psi = 0.414*[#  13]+0.414*[#  17]+0.048*[#  14]+0.048*[#  18]+0.034*[#   9]
          +0.010*[#  12]+0.010*[#  16]+0.003*[#   7]+0.002*[#   8]
    |psi|^2 = 0.981
==== e(  15) =    -2.63051 eV ==== 
     psi = 0.472*[#  12]+0.472*[#  16]+0.012*[#   8]+0.011*[#  13]+0.011*[#  17]
          
    |psi|^2 = 0.980
==== e(  16) =    -0.91878 eV ==== 
     psi = 0.463*[#   5]+0.222*[#  13]+0.222*[#  17]+0.026*[#  14]+0.026*[#  18]
          +0.012*[#   7]+0.011*[#   9]+0.005*[#  12]+0.005*[#  16]
    |psi|^2 = 0.994
==== e(  17) =    -0.89560 eV ==== 
     psi = 0.434*[#   6]+0.250*[#  12]+0.250*[#  16]+0.046*[#   8]+0.006*[#  13]
          +0.006*[#  17]+0.003*[#   9]+0.001*[#   7]
    |psi|^2 = 0.996
==== e(  18) =     1.92333 eV ==== 
     psi = 0.370*[#  10]+0.054*[#  11]+0.054*[#  15]+0.046*[#  14]+0.046*[#  18]
          +0.006*[#  13]+0.006*[#  17]+0.001*[#   9]
    |psi|^2 = 0.585
==== e(  19) =     2.65092 eV ==== 
     psi = 0.001*[#  11]+0.001*[#  15]+0.001*[#  14]+0.001*[#  18]
    |psi|^2 = 0.008
==== e(  20) =     2.76466 eV ==== 
 
    |psi|^2 = 0.001

 k =   0.0000000000  0.0000000000  0.0000000000
==== e(   1) =  -104.63144 eV ==== 
     psi = 0.996*[#   1]+0.002*[#  14]+0.002*[#  18]
    |psi|^2 = 1.000
==== e(   2) =   -64.96627 eV ==== 
     psi = 0.999*[#   2]
    |psi|^2 = 1.000
==== e(   3) =   -64.95524 eV ==== 
     psi = 0.797*[#   3]+0.203*[#   4]
    |psi|^2 = 1.000
==== e(   4) =   -64.95524 eV ==== 
     psi = 0.797*[#   4]+0.203*[#   3]
    |psi|^2 = 1.000
==== e(   5) =   -15.57127 eV ==== 
     psi = 0.361*[#  11]+0.361*[#  15]+0.266*[#  10]+0.005*[#  14]+0.005*[#  18]
          +0.001*[#   1]
    |psi|^2 = 1.000
==== e(   6) =   -14.59759 eV ==== 
     psi = 0.495*[#  11]+0.495*[#  15]+0.003*[#  14]+0.003*[#  18]
    |psi|^2 = 0.997
==== e(   7) =    -6.64392 eV ==== 
     psi = 0.343*[#  14]+0.343*[#  18]+0.075*[#  10]+0.067*[#   9]+0.039*[#  11]
          +0.039*[#  15]+0.037*[#  13]+0.037*[#  17]+0.009*[#   7]+0.003*[#   1]
          +0.001*[#  12]+0.001*[#  16]
    |psi|^2 = 0.994
==== e(   8) =    -4.57246 eV ==== 
     psi = 0.256*[#   6]+0.199*[#  12]+0.199*[#  16]+0.118*[#   5]+0.087*[#   8]
          +0.037*[#   7]+0.028*[#  13]+0.028*[#  17]+0.023*[#   9]+0.007*[#  14]
          +0.007*[#  18]
    |psi|^2 = 0.988
==== e(   9) =    -4.57246 eV ==== 
     psi = 0.298*[#   5]+0.183*[#  13]+0.183*[#  17]+0.108*[#   6]+0.065*[#   8]
          +0.041*[#   7]+0.034*[#  12]+0.034*[#  16]+0.017*[#  14]+0.017*[#  18]
          +0.009*[#   9]
    |psi|^2 = 0.988
==== e(  10) =    -3.54936 eV ==== 
     psi = 0.445*[#  14]+0.445*[#  18]+0.048*[#  13]+0.048*[#  17]+0.003*[#  11]
          +0.003*[#  15]+0.002*[#  12]+0.002*[#  16]
    |psi|^2 = 0.994
==== e(  11) =    -3.34730 eV ==== 
     psi = 0.381*[#   8]+0.349*[#   7]+0.132*[#   6]+0.069*[#   9]+0.037*[#   5]
          +0.007*[#  12]+0.007*[#  16]+0.001*[#  13]+0.001*[#  17]
    |psi|^2 = 0.986
==== e(  12) =    -3.34730 eV ==== 
     psi = 0.427*[#   7]+0.394*[#   8]+0.067*[#   5]+0.058*[#   6]+0.022*[#   9]
          +0.006*[#  13]+0.006*[#  17]+0.002*[#  12]+0.002*[#  16]
    |psi|^2 = 0.986
==== e(  13) =    -3.18701 eV ==== 
     psi = 0.773*[#   9]+0.107*[#   7]+0.025*[#  10]+0.022*[#  14]+0.022*[#  18]
          +0.010*[#   8]+0.009*[#   5]+0.006*[#  11]+0.006*[#  15]+0.002*[#  13]
          +0.002*[#  17]
    |psi|^2 = 0.987
==== e(  14) =    -2.62964 eV ==== 
     psi = 0.421*[#  12]+0.421*[#  16]+0.056*[#  13]+0.056*[#  17]+0.014*[#  14]
          +0.014*[#  18]
    |psi|^2 = 0.980
==== e(  15) =    -2.62964 eV ==== 
     psi = 0.387*[#  13]+0.387*[#  17]+0.068*[#  12]+0.068*[#  16]+0.035*[#  14]
          +0.035*[#  18]
    |psi|^2 = 0.980
==== e(  16) =    -0.89178 eV ==== 
     psi = 0.341*[#   5]+0.205*[#  13]+0.205*[#  17]+0.114*[#   6]+0.032*[#  12]
          +0.032*[#  16]+0.019*[#  14]+0.019*[#  18]+0.017*[#   8]+0.006*[#   7]
          +0.005*[#   9]
    |psi|^2 = 0.996
==== e(  17) =    -0.89178 eV ==== 
     psi = 0.319*[#   6]+0.223*[#  12]+0.223*[#  16]+0.118*[#   5]+0.031*[#   8]
          +0.027*[#  13]+0.027*[#  17]+0.010*[#   9]+0.007*[#   7]+0.007*[#  14]
          +0.007*[#  18]
    |psi|^2 = 0.996
==== e(  18) =     1.89875 eV ==== 
     psi = 0.376*[#  10]+0.055*[#  11]+0.055*[#  15]+0.047*[#  14]+0.047*[#  18]
          +0.005*[#  13]+0.005*[#  17]+0.002*[#   9]
    |psi|^2 = 0.592
==== e(  19) =     2.60878 eV ==== 
     psi = 0.002*[#  11]+0.002*[#  15]
    |psi|^2 = 0.005
==== e(  20) =     2.75769 eV ==== 
 
    |psi|^2 = 0.000

Lowdin Charges: 

     Atom #   1: total charge =  17.3755, s =  2.6509, p =  5.9999, d =  8.7247, 
                 spin up      =   9.2844, s =  1.3208, 
                 spin up      =   9.2844, p =  2.9999, p1=  1.0000, p2=  1.0000, p3=  1.0000, 
                 spin up      =   9.2844, d =  4.9636, d1=  0.9864, d2=  0.9922, d3=  0.9943, d4=  0.9952, d5=  0.9956, 
                 spin down    =   8.0911, s =  1.3301, 
                 spin down    =   8.0911, p =  2.9999, p1=  1.0000, p2=  1.0000, p3=  1.0000, 
                 spin down    =   8.0911, d =  3.7610, d1=  0.3906, d2=  0.4363, d3=  0.9735, d4=  0.9776, d5=  0.9831, 
                 polarization =   1.1933, s = -0.0093, p =  0.0000, d =  1.2026, 
     Atom #   2: total charge =   7.1963, s =  1.9304, p =  5.2659, d =  0.0000, 
                 spin up      =   3.8038, s =  0.9688, 
                 spin up      =   3.8038, p =  2.8350, p1=  0.9115, p2=  0.9555, p3=  0.9680, 
                 spin up      =   3.8038, d =  0.0000, d1=  0.0000, d2=  0.0000, d3=  0.0000, d4=  0.0000, d5=  0.0000, 
                 spin down    =   3.3925, s =  0.9616, 
                 spin down    =   3.3925, p =  2.4309, p1=  0.7653, p2=  0.8172, p3=  0.8485, 
                 spin down    =   3.3925, d =  0.0000, d1=  0.0000, d2=  0.0000, d3=  0.0000, d4=  0.0000, d5=  0.0000, 
                 polarization =   0.4113, s =  0.0073, p =  0.4041, d =  0.0000, 
     Atom #   3: total charge =   7.1963, s =  1.9304, p =  5.2659, d =  0.0000, 
                 spin up      =   3.8038, s =  0.9688, 
                 spin up      =   3.8038, p =  2.8350, p1=  0.9115, p2=  0.9555, p3=  0.9680, 
                 spin up      =   3.8038, d =  0.0000, d1=  0.0000, d2=  0.0000, d3=  0.0000, d4=  0.0000, d5=  0.0000, 
                 spin down    =   3.3925, s =  0.9616, 
                 spin down    =   3.3925, p =  2.4309, p1=  0.7653, p2=  0.8172, p3=  0.8485, 
                 spin down    =   3.3925, d =  0.0000, d1=  0.0000, d2=  0.0000, d3=  0.0000, d4=  0.0000, d5=  0.0000, 
                 polarization =   0.4113, s =  0.0073, p =  0.4041, d =  0.0000, 
     Spilling Parameter:   0.0072
 
     PROJWFC      :      5.12s CPU      7.15s WALL

 
   This run was terminated on:  15:30: 1  27Jun2023            

=------------------------------------------------------------------------------=
   JOB DONE.
=------------------------------------------------------------------------------=
