
     Program PWSCF v.7.1 starts on 27Jun2023 at 15:35: 8 

     This program is part of the open-source Quantum ESPRESSO suite
     for quantum simulation of materials; please cite
         "P. Giannozzi et al., J. Phys.:Condens. Matter 21 395502 (2009);
         "P. Giannozzi et al., J. Phys.:Condens. Matter 29 465901 (2017);
         "P. Giannozzi et al., J. Chem. Phys. 152 154105 (2020);
          URL http://www.quantum-espresso.org", 
     in publications or presentations arising from this work. More details at
     http://www.quantum-espresso.org/quote

     Parallel version (MPI & OpenMP), running on      20 processor cores
     Number of MPI processes:                20
     Threads/MPI process:                     1

     MPI processes distributed on     1 nodes
     240494 MiB available memory on the printing compute node when the environment starts
 
     Reading input from input/nscf.in

     Current dimensions of program PWSCF are:
     Max number of different atomic species (ntypx) = 10
     Max number of k-points (npk) =  40000
     Max angular momentum in pseudopotentials (lmaxx) =  4

     Atomic positions and unit cell read from directory:
     ./tmp/nso.save/
     Atomic positions from file used, from input discarded
 

     Fixed quantization axis for GGA:     0.000000    0.000000    1.000000
 
     R & G space division:  proc/nbgrp/npool/nimage =      20
     Subspace diagonalization in iterative solution of the eigenvalue problem:
     a serial algorithm will be used

 
     Parallelization info
     --------------------
     sticks:   dense  smooth     PW     G-vecs:    dense   smooth      PW
     Min          93      89     25                20481    19267    2993
     Max          94      90     26                20502    19300    3024
     Sum        1879    1789    511               409943   385631   60191
 
     Using Slab Decomposition
 


     bravais-lattice index     =            0
     lattice parameter (alat)  =       7.3605  a.u.
     unit-cell volume          =    2170.2486 (a.u.)^3
     number of atoms/cell      =            3
     number of atomic types    =            2
     number of electrons       =        32.00
     number of Kohn-Sham states=           40
     kinetic-energy cutoff     =     120.0000  Ry
     charge density cutoff     =     500.0000  Ry
     Exchange-correlation= PBE
                           (   1   4   3   4   0   0   0)
     Noncollinear calculation with spin-orbit


     celldm(1)=   7.360481  celldm(2)=   0.000000  celldm(3)=   0.000000
     celldm(4)=   0.000000  celldm(5)=   0.000000  celldm(6)=   0.000000

     crystal axes: (cart. coord. in units of alat)
               a(1) = (   1.000000   0.000000   0.000000 )  
               a(2) = (  -0.500000   0.866025   0.000000 )  
               a(3) = (   0.000000   0.000000   6.284350 )  

     reciprocal axes: (cart. coord. in units 2 pi/alat)
               b(1) = (  1.000000  0.577350  0.000000 )  
               b(2) = (  0.000000  1.154701  0.000000 )  
               b(3) = (  0.000000  0.000000  0.159125 )  


     PseudoPot. # 1 for Ni read from file:
     ../pseudo/Ni.upf
     MD5 check sum: 14a7e289c5fff9cacaba393040e62f02
     Pseudo is Norm-conserving + core correction, Zval = 18.0
     Generated using ONCVPSP code by D. R. Hamann
     Using radial grid of 1372 points, 10 beta functions with: 
                l(1) =   0
                l(2) =   0
                l(3) =   1
                l(4) =   1
                l(5) =   1
                l(6) =   1
                l(7) =   2
                l(8) =   2
                l(9) =   2
               l(10) =   2

     PseudoPot. # 2 for I  read from file:
     ../pseudo/I.upf
     MD5 check sum: 301f7009ca0a2b18b0adf53dca02d42f
     Pseudo is Norm-conserving + core correction, Zval =  7.0
     Generated using ONCVPSP code by D. R. Hamann
     Using radial grid of 1210 points, 10 beta functions with: 
                l(1) =   0
                l(2) =   0
                l(3) =   1
                l(4) =   1
                l(5) =   1
                l(6) =   1
                l(7) =   2
                l(8) =   2
                l(9) =   2
               l(10) =   2

     atomic species   valence    mass     pseudopotential
        Ni            18.00    58.69340     Ni( 1.00)
        I              7.00   126.90447     I ( 1.00)

     No symmetry found


                                    s                        frac. trans.

      isym =  1     identity                                     

 Time Reversal            0
 cryst.   s( 1) = (     1          0          0      )
                  (     0          1          0      )
                  (     0          0          1      )

 cart.    s( 1) = (  1.0000000 -0.0000000  0.0000000 )
                  (  0.0000000  1.0000000  0.0000000 )
                  (  0.0000000  0.0000000  1.0000000 )


   Cartesian axes

     site n.     atom                  positions (alat units)
         1           Ni  tau(   1) = (   0.0000000   0.0000000   3.1421749  )
         2           I   tau(   2) = (  -0.0000000   0.5773503   3.5289144  )
         3           I   tau(   3) = (   0.5000000   0.2886751   2.7554354  )

   Crystallographic axes

     site n.     atom                  positions (cryst. coord.)
         1           Ni  tau(   1) = (  0.0000000  0.0000000  0.5000000  )
         2           I   tau(   2) = (  0.3333333  0.6666667  0.5615401  )
         3           I   tau(   3) = (  0.6666667  0.3333333  0.4384599  )

     number of k points=   256  Marzari-Vanderbilt smearing, width (Ry)=  0.0015
                       cart. coord. in units 2pi/alat
        k(    1) = (   0.0000000   0.0000000   0.0000000), wk =   0.0039062
        k(    2) = (   0.0000000   0.0721688   0.0000000), wk =   0.0039062
        k(    3) = (   0.0000000   0.1443376   0.0000000), wk =   0.0039062
        k(    4) = (   0.0000000   0.2165064   0.0000000), wk =   0.0039062
        k(    5) = (   0.0000000   0.2886751   0.0000000), wk =   0.0039062
        k(    6) = (   0.0000000   0.3608439   0.0000000), wk =   0.0039062
        k(    7) = (   0.0000000   0.4330127   0.0000000), wk =   0.0039062
        k(    8) = (   0.0000000   0.5051815   0.0000000), wk =   0.0039062
        k(    9) = (   0.0000000  -0.5773503   0.0000000), wk =   0.0039062
        k(   10) = (   0.0000000  -0.5051815   0.0000000), wk =   0.0039062
        k(   11) = (   0.0000000  -0.4330127   0.0000000), wk =   0.0039062
        k(   12) = (   0.0000000  -0.3608439   0.0000000), wk =   0.0039062
        k(   13) = (   0.0000000  -0.2886751   0.0000000), wk =   0.0039062
        k(   14) = (   0.0000000  -0.2165064   0.0000000), wk =   0.0039062
        k(   15) = (   0.0000000  -0.1443376   0.0000000), wk =   0.0039062
        k(   16) = (   0.0000000  -0.0721688   0.0000000), wk =   0.0039062
        k(   17) = (   0.0625000   0.0360844   0.0000000), wk =   0.0039062
        k(   18) = (   0.0625000   0.1082532   0.0000000), wk =   0.0039062
        k(   19) = (   0.0625000   0.1804220   0.0000000), wk =   0.0039062
        k(   20) = (   0.0625000   0.2525907   0.0000000), wk =   0.0039062
        k(   21) = (   0.0625000   0.3247595   0.0000000), wk =   0.0039062
        k(   22) = (   0.0625000   0.3969283   0.0000000), wk =   0.0039062
        k(   23) = (   0.0625000   0.4690971   0.0000000), wk =   0.0039062
        k(   24) = (   0.0625000   0.5412659   0.0000000), wk =   0.0039062
        k(   25) = (   0.0625000  -0.5412659   0.0000000), wk =   0.0039062
        k(   26) = (   0.0625000  -0.4690971   0.0000000), wk =   0.0039062
        k(   27) = (   0.0625000  -0.3969283   0.0000000), wk =   0.0039062
        k(   28) = (   0.0625000  -0.3247595   0.0000000), wk =   0.0039062
        k(   29) = (   0.0625000  -0.2525907   0.0000000), wk =   0.0039062
        k(   30) = (   0.0625000  -0.1804220   0.0000000), wk =   0.0039062
        k(   31) = (   0.0625000  -0.1082532   0.0000000), wk =   0.0039062
        k(   32) = (   0.0625000  -0.0360844   0.0000000), wk =   0.0039062
        k(   33) = (   0.1250000   0.0721688   0.0000000), wk =   0.0039062
        k(   34) = (   0.1250000   0.1443376   0.0000000), wk =   0.0039062
        k(   35) = (   0.1250000   0.2165064   0.0000000), wk =   0.0039062
        k(   36) = (   0.1250000   0.2886751   0.0000000), wk =   0.0039062
        k(   37) = (   0.1250000   0.3608439   0.0000000), wk =   0.0039062
        k(   38) = (   0.1250000   0.4330127   0.0000000), wk =   0.0039062
        k(   39) = (   0.1250000   0.5051815   0.0000000), wk =   0.0039062
        k(   40) = (   0.1250000   0.5773503   0.0000000), wk =   0.0039062
        k(   41) = (   0.1250000  -0.5051815   0.0000000), wk =   0.0039062
        k(   42) = (   0.1250000  -0.4330127   0.0000000), wk =   0.0039062
        k(   43) = (   0.1250000  -0.3608439   0.0000000), wk =   0.0039062
        k(   44) = (   0.1250000  -0.2886751   0.0000000), wk =   0.0039062
        k(   45) = (   0.1250000  -0.2165064   0.0000000), wk =   0.0039062
        k(   46) = (   0.1250000  -0.1443376   0.0000000), wk =   0.0039062
        k(   47) = (   0.1250000  -0.0721688   0.0000000), wk =   0.0039062
        k(   48) = (   0.1250000   0.0000000   0.0000000), wk =   0.0039062
        k(   49) = (   0.1875000   0.1082532   0.0000000), wk =   0.0039062
        k(   50) = (   0.1875000   0.1804220   0.0000000), wk =   0.0039062
        k(   51) = (   0.1875000   0.2525907   0.0000000), wk =   0.0039062
        k(   52) = (   0.1875000   0.3247595   0.0000000), wk =   0.0039062
        k(   53) = (   0.1875000   0.3969283   0.0000000), wk =   0.0039062
        k(   54) = (   0.1875000   0.4690971   0.0000000), wk =   0.0039062
        k(   55) = (   0.1875000   0.5412659   0.0000000), wk =   0.0039062
        k(   56) = (   0.1875000   0.6134347   0.0000000), wk =   0.0039062
        k(   57) = (   0.1875000  -0.4690971   0.0000000), wk =   0.0039062
        k(   58) = (   0.1875000  -0.3969283   0.0000000), wk =   0.0039062
        k(   59) = (   0.1875000  -0.3247595   0.0000000), wk =   0.0039062
        k(   60) = (   0.1875000  -0.2525907   0.0000000), wk =   0.0039062
        k(   61) = (   0.1875000  -0.1804220   0.0000000), wk =   0.0039062
        k(   62) = (   0.1875000  -0.1082532   0.0000000), wk =   0.0039062
        k(   63) = (   0.1875000  -0.0360844   0.0000000), wk =   0.0039062
        k(   64) = (   0.1875000   0.0360844   0.0000000), wk =   0.0039062
        k(   65) = (   0.2500000   0.1443376   0.0000000), wk =   0.0039062
        k(   66) = (   0.2500000   0.2165064   0.0000000), wk =   0.0039062
        k(   67) = (   0.2500000   0.2886751   0.0000000), wk =   0.0039062
        k(   68) = (   0.2500000   0.3608439   0.0000000), wk =   0.0039062
        k(   69) = (   0.2500000   0.4330127   0.0000000), wk =   0.0039062
        k(   70) = (   0.2500000   0.5051815   0.0000000), wk =   0.0039062
        k(   71) = (   0.2500000   0.5773503   0.0000000), wk =   0.0039062
        k(   72) = (   0.2500000   0.6495191   0.0000000), wk =   0.0039062
        k(   73) = (   0.2500000  -0.4330127   0.0000000), wk =   0.0039062
        k(   74) = (   0.2500000  -0.3608439   0.0000000), wk =   0.0039062
        k(   75) = (   0.2500000  -0.2886751   0.0000000), wk =   0.0039062
        k(   76) = (   0.2500000  -0.2165064   0.0000000), wk =   0.0039062
        k(   77) = (   0.2500000  -0.1443376   0.0000000), wk =   0.0039062
        k(   78) = (   0.2500000  -0.0721688   0.0000000), wk =   0.0039062
        k(   79) = (   0.2500000   0.0000000   0.0000000), wk =   0.0039062
        k(   80) = (   0.2500000   0.0721688   0.0000000), wk =   0.0039062
        k(   81) = (   0.3125000   0.1804220   0.0000000), wk =   0.0039062
        k(   82) = (   0.3125000   0.2525907   0.0000000), wk =   0.0039062
        k(   83) = (   0.3125000   0.3247595   0.0000000), wk =   0.0039062
        k(   84) = (   0.3125000   0.3969283   0.0000000), wk =   0.0039062
        k(   85) = (   0.3125000   0.4690971   0.0000000), wk =   0.0039062
        k(   86) = (   0.3125000   0.5412659   0.0000000), wk =   0.0039062
        k(   87) = (   0.3125000   0.6134347   0.0000000), wk =   0.0039062
        k(   88) = (   0.3125000   0.6856034   0.0000000), wk =   0.0039062
        k(   89) = (   0.3125000  -0.3969283   0.0000000), wk =   0.0039062
        k(   90) = (   0.3125000  -0.3247595   0.0000000), wk =   0.0039062
        k(   91) = (   0.3125000  -0.2525907   0.0000000), wk =   0.0039062
        k(   92) = (   0.3125000  -0.1804220   0.0000000), wk =   0.0039062
        k(   93) = (   0.3125000  -0.1082532   0.0000000), wk =   0.0039062
        k(   94) = (   0.3125000  -0.0360844   0.0000000), wk =   0.0039062
        k(   95) = (   0.3125000   0.0360844   0.0000000), wk =   0.0039062
        k(   96) = (   0.3125000   0.1082532   0.0000000), wk =   0.0039062
        k(   97) = (   0.3750000   0.2165064   0.0000000), wk =   0.0039062
        k(   98) = (   0.3750000   0.2886751   0.0000000), wk =   0.0039062
        k(   99) = (   0.3750000   0.3608439   0.0000000), wk =   0.0039062
        k(  100) = (   0.3750000   0.4330127   0.0000000), wk =   0.0039062
        k(  101) = (   0.3750000   0.5051815   0.0000000), wk =   0.0039062
        k(  102) = (   0.3750000   0.5773503   0.0000000), wk =   0.0039062
        k(  103) = (   0.3750000   0.6495191   0.0000000), wk =   0.0039062
        k(  104) = (   0.3750000   0.7216878   0.0000000), wk =   0.0039062
        k(  105) = (   0.3750000  -0.3608439   0.0000000), wk =   0.0039062
        k(  106) = (   0.3750000  -0.2886751   0.0000000), wk =   0.0039062
        k(  107) = (   0.3750000  -0.2165064   0.0000000), wk =   0.0039062
        k(  108) = (   0.3750000  -0.1443376   0.0000000), wk =   0.0039062
        k(  109) = (   0.3750000  -0.0721688   0.0000000), wk =   0.0039062
        k(  110) = (   0.3750000   0.0000000   0.0000000), wk =   0.0039062
        k(  111) = (   0.3750000   0.0721688   0.0000000), wk =   0.0039062
        k(  112) = (   0.3750000   0.1443376   0.0000000), wk =   0.0039062
        k(  113) = (   0.4375000   0.2525907   0.0000000), wk =   0.0039062
        k(  114) = (   0.4375000   0.3247595   0.0000000), wk =   0.0039062
        k(  115) = (   0.4375000   0.3969283   0.0000000), wk =   0.0039062
        k(  116) = (   0.4375000   0.4690971   0.0000000), wk =   0.0039062
        k(  117) = (   0.4375000   0.5412659   0.0000000), wk =   0.0039062
        k(  118) = (   0.4375000   0.6134347   0.0000000), wk =   0.0039062
        k(  119) = (   0.4375000   0.6856034   0.0000000), wk =   0.0039062
        k(  120) = (   0.4375000   0.7577722   0.0000000), wk =   0.0039062
        k(  121) = (   0.4375000  -0.3247595   0.0000000), wk =   0.0039062
        k(  122) = (   0.4375000  -0.2525907   0.0000000), wk =   0.0039062
        k(  123) = (   0.4375000  -0.1804220   0.0000000), wk =   0.0039062
        k(  124) = (   0.4375000  -0.1082532   0.0000000), wk =   0.0039062
        k(  125) = (   0.4375000  -0.0360844   0.0000000), wk =   0.0039062
        k(  126) = (   0.4375000   0.0360844   0.0000000), wk =   0.0039062
        k(  127) = (   0.4375000   0.1082532   0.0000000), wk =   0.0039062
        k(  128) = (   0.4375000   0.1804220   0.0000000), wk =   0.0039062
        k(  129) = (  -0.5000000  -0.2886751   0.0000000), wk =   0.0039062
        k(  130) = (  -0.5000000  -0.2165064   0.0000000), wk =   0.0039062
        k(  131) = (  -0.5000000  -0.1443376   0.0000000), wk =   0.0039062
        k(  132) = (  -0.5000000  -0.0721688   0.0000000), wk =   0.0039062
        k(  133) = (  -0.5000000   0.0000000   0.0000000), wk =   0.0039062
        k(  134) = (  -0.5000000   0.0721688   0.0000000), wk =   0.0039062
        k(  135) = (  -0.5000000   0.1443376   0.0000000), wk =   0.0039062
        k(  136) = (  -0.5000000   0.2165064   0.0000000), wk =   0.0039062
        k(  137) = (  -0.5000000  -0.8660254   0.0000000), wk =   0.0039062
        k(  138) = (  -0.5000000  -0.7938566   0.0000000), wk =   0.0039062
        k(  139) = (  -0.5000000  -0.7216878   0.0000000), wk =   0.0039062
        k(  140) = (  -0.5000000  -0.6495191   0.0000000), wk =   0.0039062
        k(  141) = (  -0.5000000  -0.5773503   0.0000000), wk =   0.0039062
        k(  142) = (  -0.5000000  -0.5051815   0.0000000), wk =   0.0039062
        k(  143) = (  -0.5000000  -0.4330127   0.0000000), wk =   0.0039062
        k(  144) = (  -0.5000000  -0.3608439   0.0000000), wk =   0.0039062
        k(  145) = (  -0.4375000  -0.2525907   0.0000000), wk =   0.0039062
        k(  146) = (  -0.4375000  -0.1804220   0.0000000), wk =   0.0039062
        k(  147) = (  -0.4375000  -0.1082532   0.0000000), wk =   0.0039062
        k(  148) = (  -0.4375000  -0.0360844   0.0000000), wk =   0.0039062
        k(  149) = (  -0.4375000   0.0360844   0.0000000), wk =   0.0039062
        k(  150) = (  -0.4375000   0.1082532   0.0000000), wk =   0.0039062
        k(  151) = (  -0.4375000   0.1804220   0.0000000), wk =   0.0039062
        k(  152) = (  -0.4375000   0.2525907   0.0000000), wk =   0.0039062
        k(  153) = (  -0.4375000  -0.8299410   0.0000000), wk =   0.0039062
        k(  154) = (  -0.4375000  -0.7577722   0.0000000), wk =   0.0039062
        k(  155) = (  -0.4375000  -0.6856034   0.0000000), wk =   0.0039062
        k(  156) = (  -0.4375000  -0.6134347   0.0000000), wk =   0.0039062
        k(  157) = (  -0.4375000  -0.5412659   0.0000000), wk =   0.0039062
        k(  158) = (  -0.4375000  -0.4690971   0.0000000), wk =   0.0039062
        k(  159) = (  -0.4375000  -0.3969283   0.0000000), wk =   0.0039062
        k(  160) = (  -0.4375000  -0.3247595   0.0000000), wk =   0.0039062
        k(  161) = (  -0.3750000  -0.2165064   0.0000000), wk =   0.0039062
        k(  162) = (  -0.3750000  -0.1443376   0.0000000), wk =   0.0039062
        k(  163) = (  -0.3750000  -0.0721688   0.0000000), wk =   0.0039062
        k(  164) = (  -0.3750000   0.0000000   0.0000000), wk =   0.0039062
        k(  165) = (  -0.3750000   0.0721688   0.0000000), wk =   0.0039062
        k(  166) = (  -0.3750000   0.1443376   0.0000000), wk =   0.0039062
        k(  167) = (  -0.3750000   0.2165064   0.0000000), wk =   0.0039062
        k(  168) = (  -0.3750000   0.2886751   0.0000000), wk =   0.0039062
        k(  169) = (  -0.3750000  -0.7938566   0.0000000), wk =   0.0039062
        k(  170) = (  -0.3750000  -0.7216878   0.0000000), wk =   0.0039062
        k(  171) = (  -0.3750000  -0.6495191   0.0000000), wk =   0.0039062
        k(  172) = (  -0.3750000  -0.5773503   0.0000000), wk =   0.0039062
        k(  173) = (  -0.3750000  -0.5051815   0.0000000), wk =   0.0039062
        k(  174) = (  -0.3750000  -0.4330127   0.0000000), wk =   0.0039062
        k(  175) = (  -0.3750000  -0.3608439   0.0000000), wk =   0.0039062
        k(  176) = (  -0.3750000  -0.2886751   0.0000000), wk =   0.0039062
        k(  177) = (  -0.3125000  -0.1804220   0.0000000), wk =   0.0039062
        k(  178) = (  -0.3125000  -0.1082532   0.0000000), wk =   0.0039062
        k(  179) = (  -0.3125000  -0.0360844   0.0000000), wk =   0.0039062
        k(  180) = (  -0.3125000   0.0360844   0.0000000), wk =   0.0039062
        k(  181) = (  -0.3125000   0.1082532   0.0000000), wk =   0.0039062
        k(  182) = (  -0.3125000   0.1804220   0.0000000), wk =   0.0039062
        k(  183) = (  -0.3125000   0.2525907   0.0000000), wk =   0.0039062
        k(  184) = (  -0.3125000   0.3247595   0.0000000), wk =   0.0039062
        k(  185) = (  -0.3125000  -0.7577722   0.0000000), wk =   0.0039062
        k(  186) = (  -0.3125000  -0.6856034   0.0000000), wk =   0.0039062
        k(  187) = (  -0.3125000  -0.6134347   0.0000000), wk =   0.0039062
        k(  188) = (  -0.3125000  -0.5412659   0.0000000), wk =   0.0039062
        k(  189) = (  -0.3125000  -0.4690971   0.0000000), wk =   0.0039062
        k(  190) = (  -0.3125000  -0.3969283   0.0000000), wk =   0.0039062
        k(  191) = (  -0.3125000  -0.3247595   0.0000000), wk =   0.0039062
        k(  192) = (  -0.3125000  -0.2525907   0.0000000), wk =   0.0039062
        k(  193) = (  -0.2500000  -0.1443376   0.0000000), wk =   0.0039062
        k(  194) = (  -0.2500000  -0.0721688   0.0000000), wk =   0.0039062
        k(  195) = (  -0.2500000   0.0000000   0.0000000), wk =   0.0039062
        k(  196) = (  -0.2500000   0.0721688   0.0000000), wk =   0.0039062
        k(  197) = (  -0.2500000   0.1443376   0.0000000), wk =   0.0039062
        k(  198) = (  -0.2500000   0.2165064   0.0000000), wk =   0.0039062
        k(  199) = (  -0.2500000   0.2886751   0.0000000), wk =   0.0039062
        k(  200) = (  -0.2500000   0.3608439   0.0000000), wk =   0.0039062
        k(  201) = (  -0.2500000  -0.7216878   0.0000000), wk =   0.0039062
        k(  202) = (  -0.2500000  -0.6495191   0.0000000), wk =   0.0039062
        k(  203) = (  -0.2500000  -0.5773503   0.0000000), wk =   0.0039062
        k(  204) = (  -0.2500000  -0.5051815   0.0000000), wk =   0.0039062
        k(  205) = (  -0.2500000  -0.4330127   0.0000000), wk =   0.0039062
        k(  206) = (  -0.2500000  -0.3608439   0.0000000), wk =   0.0039062
        k(  207) = (  -0.2500000  -0.2886751   0.0000000), wk =   0.0039062
        k(  208) = (  -0.2500000  -0.2165064   0.0000000), wk =   0.0039062
        k(  209) = (  -0.1875000  -0.1082532   0.0000000), wk =   0.0039062
        k(  210) = (  -0.1875000  -0.0360844   0.0000000), wk =   0.0039062
        k(  211) = (  -0.1875000   0.0360844   0.0000000), wk =   0.0039062
        k(  212) = (  -0.1875000   0.1082532   0.0000000), wk =   0.0039062
        k(  213) = (  -0.1875000   0.1804220   0.0000000), wk =   0.0039062
        k(  214) = (  -0.1875000   0.2525907   0.0000000), wk =   0.0039062
        k(  215) = (  -0.1875000   0.3247595   0.0000000), wk =   0.0039062
        k(  216) = (  -0.1875000   0.3969283   0.0000000), wk =   0.0039062
        k(  217) = (  -0.1875000  -0.6856034   0.0000000), wk =   0.0039062
        k(  218) = (  -0.1875000  -0.6134347   0.0000000), wk =   0.0039062
        k(  219) = (  -0.1875000  -0.5412659   0.0000000), wk =   0.0039062
        k(  220) = (  -0.1875000  -0.4690971   0.0000000), wk =   0.0039062
        k(  221) = (  -0.1875000  -0.3969283   0.0000000), wk =   0.0039062
        k(  222) = (  -0.1875000  -0.3247595   0.0000000), wk =   0.0039062
        k(  223) = (  -0.1875000  -0.2525907   0.0000000), wk =   0.0039062
        k(  224) = (  -0.1875000  -0.1804220   0.0000000), wk =   0.0039062
        k(  225) = (  -0.1250000  -0.0721688   0.0000000), wk =   0.0039062
        k(  226) = (  -0.1250000   0.0000000   0.0000000), wk =   0.0039062
        k(  227) = (  -0.1250000   0.0721688   0.0000000), wk =   0.0039062
        k(  228) = (  -0.1250000   0.1443376   0.0000000), wk =   0.0039062
        k(  229) = (  -0.1250000   0.2165064   0.0000000), wk =   0.0039062
        k(  230) = (  -0.1250000   0.2886751   0.0000000), wk =   0.0039062
        k(  231) = (  -0.1250000   0.3608439   0.0000000), wk =   0.0039062
        k(  232) = (  -0.1250000   0.4330127   0.0000000), wk =   0.0039062
        k(  233) = (  -0.1250000  -0.6495191   0.0000000), wk =   0.0039062
        k(  234) = (  -0.1250000  -0.5773503   0.0000000), wk =   0.0039062
        k(  235) = (  -0.1250000  -0.5051815   0.0000000), wk =   0.0039062
        k(  236) = (  -0.1250000  -0.4330127   0.0000000), wk =   0.0039062
        k(  237) = (  -0.1250000  -0.3608439   0.0000000), wk =   0.0039062
        k(  238) = (  -0.1250000  -0.2886751   0.0000000), wk =   0.0039062
        k(  239) = (  -0.1250000  -0.2165064   0.0000000), wk =   0.0039062
        k(  240) = (  -0.1250000  -0.1443376   0.0000000), wk =   0.0039062
        k(  241) = (  -0.0625000  -0.0360844   0.0000000), wk =   0.0039062
        k(  242) = (  -0.0625000   0.0360844   0.0000000), wk =   0.0039062
        k(  243) = (  -0.0625000   0.1082532   0.0000000), wk =   0.0039062
        k(  244) = (  -0.0625000   0.1804220   0.0000000), wk =   0.0039062
        k(  245) = (  -0.0625000   0.2525907   0.0000000), wk =   0.0039062
        k(  246) = (  -0.0625000   0.3247595   0.0000000), wk =   0.0039062
        k(  247) = (  -0.0625000   0.3969283   0.0000000), wk =   0.0039062
        k(  248) = (  -0.0625000   0.4690971   0.0000000), wk =   0.0039062
        k(  249) = (  -0.0625000  -0.6134347   0.0000000), wk =   0.0039062
        k(  250) = (  -0.0625000  -0.5412659   0.0000000), wk =   0.0039062
        k(  251) = (  -0.0625000  -0.4690971   0.0000000), wk =   0.0039062
        k(  252) = (  -0.0625000  -0.3969283   0.0000000), wk =   0.0039062
        k(  253) = (  -0.0625000  -0.3247595   0.0000000), wk =   0.0039062
        k(  254) = (  -0.0625000  -0.2525907   0.0000000), wk =   0.0039062
        k(  255) = (  -0.0625000  -0.1804220   0.0000000), wk =   0.0039062
        k(  256) = (  -0.0625000  -0.1082532   0.0000000), wk =   0.0039062

                       cryst. coord.
        k(    1) = (   0.0000000   0.0000000   0.0000000), wk =   0.0039062
        k(    2) = (   0.0000000   0.0625000   0.0000000), wk =   0.0039062
        k(    3) = (   0.0000000   0.1250000   0.0000000), wk =   0.0039062
        k(    4) = (   0.0000000   0.1875000   0.0000000), wk =   0.0039062
        k(    5) = (   0.0000000   0.2500000   0.0000000), wk =   0.0039062
        k(    6) = (   0.0000000   0.3125000   0.0000000), wk =   0.0039062
        k(    7) = (   0.0000000   0.3750000   0.0000000), wk =   0.0039062
        k(    8) = (   0.0000000   0.4375000   0.0000000), wk =   0.0039062
        k(    9) = (   0.0000000  -0.5000000   0.0000000), wk =   0.0039062
        k(   10) = (   0.0000000  -0.4375000   0.0000000), wk =   0.0039062
        k(   11) = (   0.0000000  -0.3750000   0.0000000), wk =   0.0039062
        k(   12) = (   0.0000000  -0.3125000   0.0000000), wk =   0.0039062
        k(   13) = (   0.0000000  -0.2500000   0.0000000), wk =   0.0039062
        k(   14) = (   0.0000000  -0.1875000   0.0000000), wk =   0.0039062
        k(   15) = (   0.0000000  -0.1250000   0.0000000), wk =   0.0039062
        k(   16) = (   0.0000000  -0.0625000   0.0000000), wk =   0.0039062
        k(   17) = (   0.0625000  -0.0000000   0.0000000), wk =   0.0039062
        k(   18) = (   0.0625000   0.0625000   0.0000000), wk =   0.0039062
        k(   19) = (   0.0625000   0.1250000   0.0000000), wk =   0.0039062
        k(   20) = (   0.0625000   0.1875000   0.0000000), wk =   0.0039062
        k(   21) = (   0.0625000   0.2500000   0.0000000), wk =   0.0039062
        k(   22) = (   0.0625000   0.3125000   0.0000000), wk =   0.0039062
        k(   23) = (   0.0625000   0.3750000   0.0000000), wk =   0.0039062
        k(   24) = (   0.0625000   0.4375000   0.0000000), wk =   0.0039062
        k(   25) = (   0.0625000  -0.5000000   0.0000000), wk =   0.0039062
        k(   26) = (   0.0625000  -0.4375000   0.0000000), wk =   0.0039062
        k(   27) = (   0.0625000  -0.3750000   0.0000000), wk =   0.0039062
        k(   28) = (   0.0625000  -0.3125000   0.0000000), wk =   0.0039062
        k(   29) = (   0.0625000  -0.2500000   0.0000000), wk =   0.0039062
        k(   30) = (   0.0625000  -0.1875000   0.0000000), wk =   0.0039062
        k(   31) = (   0.0625000  -0.1250000   0.0000000), wk =   0.0039062
        k(   32) = (   0.0625000  -0.0625000   0.0000000), wk =   0.0039062
        k(   33) = (   0.1250000  -0.0000000   0.0000000), wk =   0.0039062
        k(   34) = (   0.1250000   0.0625000   0.0000000), wk =   0.0039062
        k(   35) = (   0.1250000   0.1250000   0.0000000), wk =   0.0039062
        k(   36) = (   0.1250000   0.1875000   0.0000000), wk =   0.0039062
        k(   37) = (   0.1250000   0.2500000   0.0000000), wk =   0.0039062
        k(   38) = (   0.1250000   0.3125000   0.0000000), wk =   0.0039062
        k(   39) = (   0.1250000   0.3750000   0.0000000), wk =   0.0039062
        k(   40) = (   0.1250000   0.4375000   0.0000000), wk =   0.0039062
        k(   41) = (   0.1250000  -0.5000000   0.0000000), wk =   0.0039062
        k(   42) = (   0.1250000  -0.4375000   0.0000000), wk =   0.0039062
        k(   43) = (   0.1250000  -0.3750000   0.0000000), wk =   0.0039062
        k(   44) = (   0.1250000  -0.3125000   0.0000000), wk =   0.0039062
        k(   45) = (   0.1250000  -0.2500000   0.0000000), wk =   0.0039062
        k(   46) = (   0.1250000  -0.1875000   0.0000000), wk =   0.0039062
        k(   47) = (   0.1250000  -0.1250000   0.0000000), wk =   0.0039062
        k(   48) = (   0.1250000  -0.0625000   0.0000000), wk =   0.0039062
        k(   49) = (   0.1875000  -0.0000000   0.0000000), wk =   0.0039062
        k(   50) = (   0.1875000   0.0625000   0.0000000), wk =   0.0039062
        k(   51) = (   0.1875000   0.1250000   0.0000000), wk =   0.0039062
        k(   52) = (   0.1875000   0.1875000   0.0000000), wk =   0.0039062
        k(   53) = (   0.1875000   0.2500000   0.0000000), wk =   0.0039062
        k(   54) = (   0.1875000   0.3125000   0.0000000), wk =   0.0039062
        k(   55) = (   0.1875000   0.3750000   0.0000000), wk =   0.0039062
        k(   56) = (   0.1875000   0.4375000   0.0000000), wk =   0.0039062
        k(   57) = (   0.1875000  -0.5000000   0.0000000), wk =   0.0039062
        k(   58) = (   0.1875000  -0.4375000   0.0000000), wk =   0.0039062
        k(   59) = (   0.1875000  -0.3750000   0.0000000), wk =   0.0039062
        k(   60) = (   0.1875000  -0.3125000   0.0000000), wk =   0.0039062
        k(   61) = (   0.1875000  -0.2500000   0.0000000), wk =   0.0039062
        k(   62) = (   0.1875000  -0.1875000   0.0000000), wk =   0.0039062
        k(   63) = (   0.1875000  -0.1250000   0.0000000), wk =   0.0039062
        k(   64) = (   0.1875000  -0.0625000   0.0000000), wk =   0.0039062
        k(   65) = (   0.2500000  -0.0000000   0.0000000), wk =   0.0039062
        k(   66) = (   0.2500000   0.0625000   0.0000000), wk =   0.0039062
        k(   67) = (   0.2500000   0.1250000   0.0000000), wk =   0.0039062
        k(   68) = (   0.2500000   0.1875000   0.0000000), wk =   0.0039062
        k(   69) = (   0.2500000   0.2500000   0.0000000), wk =   0.0039062
        k(   70) = (   0.2500000   0.3125000   0.0000000), wk =   0.0039062
        k(   71) = (   0.2500000   0.3750000   0.0000000), wk =   0.0039062
        k(   72) = (   0.2500000   0.4375000   0.0000000), wk =   0.0039062
        k(   73) = (   0.2500000  -0.5000000   0.0000000), wk =   0.0039062
        k(   74) = (   0.2500000  -0.4375000   0.0000000), wk =   0.0039062
        k(   75) = (   0.2500000  -0.3750000   0.0000000), wk =   0.0039062
        k(   76) = (   0.2500000  -0.3125000   0.0000000), wk =   0.0039062
        k(   77) = (   0.2500000  -0.2500000   0.0000000), wk =   0.0039062
        k(   78) = (   0.2500000  -0.1875000   0.0000000), wk =   0.0039062
        k(   79) = (   0.2500000  -0.1250000   0.0000000), wk =   0.0039062
        k(   80) = (   0.2500000  -0.0625000   0.0000000), wk =   0.0039062
        k(   81) = (   0.3125000  -0.0000000   0.0000000), wk =   0.0039062
        k(   82) = (   0.3125000   0.0625000   0.0000000), wk =   0.0039062
        k(   83) = (   0.3125000   0.1250000   0.0000000), wk =   0.0039062
        k(   84) = (   0.3125000   0.1875000   0.0000000), wk =   0.0039062
        k(   85) = (   0.3125000   0.2500000   0.0000000), wk =   0.0039062
        k(   86) = (   0.3125000   0.3125000   0.0000000), wk =   0.0039062
        k(   87) = (   0.3125000   0.3750000   0.0000000), wk =   0.0039062
        k(   88) = (   0.3125000   0.4375000   0.0000000), wk =   0.0039062
        k(   89) = (   0.3125000  -0.5000000   0.0000000), wk =   0.0039062
        k(   90) = (   0.3125000  -0.4375000   0.0000000), wk =   0.0039062
        k(   91) = (   0.3125000  -0.3750000   0.0000000), wk =   0.0039062
        k(   92) = (   0.3125000  -0.3125000   0.0000000), wk =   0.0039062
        k(   93) = (   0.3125000  -0.2500000   0.0000000), wk =   0.0039062
        k(   94) = (   0.3125000  -0.1875000   0.0000000), wk =   0.0039062
        k(   95) = (   0.3125000  -0.1250000   0.0000000), wk =   0.0039062
        k(   96) = (   0.3125000  -0.0625000   0.0000000), wk =   0.0039062
        k(   97) = (   0.3750000  -0.0000000   0.0000000), wk =   0.0039062
        k(   98) = (   0.3750000   0.0625000   0.0000000), wk =   0.0039062
        k(   99) = (   0.3750000   0.1250000   0.0000000), wk =   0.0039062
        k(  100) = (   0.3750000   0.1875000   0.0000000), wk =   0.0039062
        k(  101) = (   0.3750000   0.2500000   0.0000000), wk =   0.0039062
        k(  102) = (   0.3750000   0.3125000   0.0000000), wk =   0.0039062
        k(  103) = (   0.3750000   0.3750000   0.0000000), wk =   0.0039062
        k(  104) = (   0.3750000   0.4375000   0.0000000), wk =   0.0039062
        k(  105) = (   0.3750000  -0.5000000   0.0000000), wk =   0.0039062
        k(  106) = (   0.3750000  -0.4375000   0.0000000), wk =   0.0039062
        k(  107) = (   0.3750000  -0.3750000   0.0000000), wk =   0.0039062
        k(  108) = (   0.3750000  -0.3125000   0.0000000), wk =   0.0039062
        k(  109) = (   0.3750000  -0.2500000   0.0000000), wk =   0.0039062
        k(  110) = (   0.3750000  -0.1875000   0.0000000), wk =   0.0039062
        k(  111) = (   0.3750000  -0.1250000   0.0000000), wk =   0.0039062
        k(  112) = (   0.3750000  -0.0625000   0.0000000), wk =   0.0039062
        k(  113) = (   0.4375000  -0.0000000   0.0000000), wk =   0.0039062
        k(  114) = (   0.4375000   0.0625000   0.0000000), wk =   0.0039062
        k(  115) = (   0.4375000   0.1250000   0.0000000), wk =   0.0039062
        k(  116) = (   0.4375000   0.1875000   0.0000000), wk =   0.0039062
        k(  117) = (   0.4375000   0.2500000   0.0000000), wk =   0.0039062
        k(  118) = (   0.4375000   0.3125000   0.0000000), wk =   0.0039062
        k(  119) = (   0.4375000   0.3750000   0.0000000), wk =   0.0039062
        k(  120) = (   0.4375000   0.4375000   0.0000000), wk =   0.0039062
        k(  121) = (   0.4375000  -0.5000000   0.0000000), wk =   0.0039062
        k(  122) = (   0.4375000  -0.4375000   0.0000000), wk =   0.0039062
        k(  123) = (   0.4375000  -0.3750000   0.0000000), wk =   0.0039062
        k(  124) = (   0.4375000  -0.3125000   0.0000000), wk =   0.0039062
        k(  125) = (   0.4375000  -0.2500000   0.0000000), wk =   0.0039062
        k(  126) = (   0.4375000  -0.1875000   0.0000000), wk =   0.0039062
        k(  127) = (   0.4375000  -0.1250000   0.0000000), wk =   0.0039062
        k(  128) = (   0.4375000  -0.0625000   0.0000000), wk =   0.0039062
        k(  129) = (  -0.5000000   0.0000000   0.0000000), wk =   0.0039062
        k(  130) = (  -0.5000000   0.0625000   0.0000000), wk =   0.0039062
        k(  131) = (  -0.5000000   0.1250000   0.0000000), wk =   0.0039062
        k(  132) = (  -0.5000000   0.1875000   0.0000000), wk =   0.0039062
        k(  133) = (  -0.5000000   0.2500000   0.0000000), wk =   0.0039062
        k(  134) = (  -0.5000000   0.3125000   0.0000000), wk =   0.0039062
        k(  135) = (  -0.5000000   0.3750000   0.0000000), wk =   0.0039062
        k(  136) = (  -0.5000000   0.4375000   0.0000000), wk =   0.0039062
        k(  137) = (  -0.5000000  -0.5000000   0.0000000), wk =   0.0039062
        k(  138) = (  -0.5000000  -0.4375000   0.0000000), wk =   0.0039062
        k(  139) = (  -0.5000000  -0.3750000   0.0000000), wk =   0.0039062
        k(  140) = (  -0.5000000  -0.3125000   0.0000000), wk =   0.0039062
        k(  141) = (  -0.5000000  -0.2500000   0.0000000), wk =   0.0039062
        k(  142) = (  -0.5000000  -0.1875000   0.0000000), wk =   0.0039062
        k(  143) = (  -0.5000000  -0.1250000   0.0000000), wk =   0.0039062
        k(  144) = (  -0.5000000  -0.0625000   0.0000000), wk =   0.0039062
        k(  145) = (  -0.4375000   0.0000000   0.0000000), wk =   0.0039062
        k(  146) = (  -0.4375000   0.0625000   0.0000000), wk =   0.0039062
        k(  147) = (  -0.4375000   0.1250000   0.0000000), wk =   0.0039062
        k(  148) = (  -0.4375000   0.1875000   0.0000000), wk =   0.0039062
        k(  149) = (  -0.4375000   0.2500000   0.0000000), wk =   0.0039062
        k(  150) = (  -0.4375000   0.3125000   0.0000000), wk =   0.0039062
        k(  151) = (  -0.4375000   0.3750000   0.0000000), wk =   0.0039062
        k(  152) = (  -0.4375000   0.4375000   0.0000000), wk =   0.0039062
        k(  153) = (  -0.4375000  -0.5000000   0.0000000), wk =   0.0039062
        k(  154) = (  -0.4375000  -0.4375000   0.0000000), wk =   0.0039062
        k(  155) = (  -0.4375000  -0.3750000   0.0000000), wk =   0.0039062
        k(  156) = (  -0.4375000  -0.3125000   0.0000000), wk =   0.0039062
        k(  157) = (  -0.4375000  -0.2500000   0.0000000), wk =   0.0039062
        k(  158) = (  -0.4375000  -0.1875000   0.0000000), wk =   0.0039062
        k(  159) = (  -0.4375000  -0.1250000   0.0000000), wk =   0.0039062
        k(  160) = (  -0.4375000  -0.0625000   0.0000000), wk =   0.0039062
        k(  161) = (  -0.3750000   0.0000000   0.0000000), wk =   0.0039062
        k(  162) = (  -0.3750000   0.0625000   0.0000000), wk =   0.0039062
        k(  163) = (  -0.3750000   0.1250000   0.0000000), wk =   0.0039062
        k(  164) = (  -0.3750000   0.1875000   0.0000000), wk =   0.0039062
        k(  165) = (  -0.3750000   0.2500000   0.0000000), wk =   0.0039062
        k(  166) = (  -0.3750000   0.3125000   0.0000000), wk =   0.0039062
        k(  167) = (  -0.3750000   0.3750000   0.0000000), wk =   0.0039062
        k(  168) = (  -0.3750000   0.4375000   0.0000000), wk =   0.0039062
        k(  169) = (  -0.3750000  -0.5000000   0.0000000), wk =   0.0039062
        k(  170) = (  -0.3750000  -0.4375000   0.0000000), wk =   0.0039062
        k(  171) = (  -0.3750000  -0.3750000   0.0000000), wk =   0.0039062
        k(  172) = (  -0.3750000  -0.3125000   0.0000000), wk =   0.0039062
        k(  173) = (  -0.3750000  -0.2500000   0.0000000), wk =   0.0039062
        k(  174) = (  -0.3750000  -0.1875000   0.0000000), wk =   0.0039062
        k(  175) = (  -0.3750000  -0.1250000   0.0000000), wk =   0.0039062
        k(  176) = (  -0.3750000  -0.0625000   0.0000000), wk =   0.0039062
        k(  177) = (  -0.3125000   0.0000000   0.0000000), wk =   0.0039062
        k(  178) = (  -0.3125000   0.0625000   0.0000000), wk =   0.0039062
        k(  179) = (  -0.3125000   0.1250000   0.0000000), wk =   0.0039062
        k(  180) = (  -0.3125000   0.1875000   0.0000000), wk =   0.0039062
        k(  181) = (  -0.3125000   0.2500000   0.0000000), wk =   0.0039062
        k(  182) = (  -0.3125000   0.3125000   0.0000000), wk =   0.0039062
        k(  183) = (  -0.3125000   0.3750000   0.0000000), wk =   0.0039062
        k(  184) = (  -0.3125000   0.4375000   0.0000000), wk =   0.0039062
        k(  185) = (  -0.3125000  -0.5000000   0.0000000), wk =   0.0039062
        k(  186) = (  -0.3125000  -0.4375000   0.0000000), wk =   0.0039062
        k(  187) = (  -0.3125000  -0.3750000   0.0000000), wk =   0.0039062
        k(  188) = (  -0.3125000  -0.3125000   0.0000000), wk =   0.0039062
        k(  189) = (  -0.3125000  -0.2500000   0.0000000), wk =   0.0039062
        k(  190) = (  -0.3125000  -0.1875000   0.0000000), wk =   0.0039062
        k(  191) = (  -0.3125000  -0.1250000   0.0000000), wk =   0.0039062
        k(  192) = (  -0.3125000  -0.0625000   0.0000000), wk =   0.0039062
        k(  193) = (  -0.2500000   0.0000000   0.0000000), wk =   0.0039062
        k(  194) = (  -0.2500000   0.0625000   0.0000000), wk =   0.0039062
        k(  195) = (  -0.2500000   0.1250000   0.0000000), wk =   0.0039062
        k(  196) = (  -0.2500000   0.1875000   0.0000000), wk =   0.0039062
        k(  197) = (  -0.2500000   0.2500000   0.0000000), wk =   0.0039062
        k(  198) = (  -0.2500000   0.3125000   0.0000000), wk =   0.0039062
        k(  199) = (  -0.2500000   0.3750000   0.0000000), wk =   0.0039062
        k(  200) = (  -0.2500000   0.4375000   0.0000000), wk =   0.0039062
        k(  201) = (  -0.2500000  -0.5000000   0.0000000), wk =   0.0039062
        k(  202) = (  -0.2500000  -0.4375000   0.0000000), wk =   0.0039062
        k(  203) = (  -0.2500000  -0.3750000   0.0000000), wk =   0.0039062
        k(  204) = (  -0.2500000  -0.3125000   0.0000000), wk =   0.0039062
        k(  205) = (  -0.2500000  -0.2500000   0.0000000), wk =   0.0039062
        k(  206) = (  -0.2500000  -0.1875000   0.0000000), wk =   0.0039062
        k(  207) = (  -0.2500000  -0.1250000   0.0000000), wk =   0.0039062
        k(  208) = (  -0.2500000  -0.0625000   0.0000000), wk =   0.0039062
        k(  209) = (  -0.1875000   0.0000000   0.0000000), wk =   0.0039062
        k(  210) = (  -0.1875000   0.0625000   0.0000000), wk =   0.0039062
        k(  211) = (  -0.1875000   0.1250000   0.0000000), wk =   0.0039062
        k(  212) = (  -0.1875000   0.1875000   0.0000000), wk =   0.0039062
        k(  213) = (  -0.1875000   0.2500000   0.0000000), wk =   0.0039062
        k(  214) = (  -0.1875000   0.3125000   0.0000000), wk =   0.0039062
        k(  215) = (  -0.1875000   0.3750000   0.0000000), wk =   0.0039062
        k(  216) = (  -0.1875000   0.4375000   0.0000000), wk =   0.0039062
        k(  217) = (  -0.1875000  -0.5000000   0.0000000), wk =   0.0039062
        k(  218) = (  -0.1875000  -0.4375000   0.0000000), wk =   0.0039062
        k(  219) = (  -0.1875000  -0.3750000   0.0000000), wk =   0.0039062
        k(  220) = (  -0.1875000  -0.3125000   0.0000000), wk =   0.0039062
        k(  221) = (  -0.1875000  -0.2500000   0.0000000), wk =   0.0039062
        k(  222) = (  -0.1875000  -0.1875000   0.0000000), wk =   0.0039062
        k(  223) = (  -0.1875000  -0.1250000   0.0000000), wk =   0.0039062
        k(  224) = (  -0.1875000  -0.0625000   0.0000000), wk =   0.0039062
        k(  225) = (  -0.1250000   0.0000000   0.0000000), wk =   0.0039062
        k(  226) = (  -0.1250000   0.0625000   0.0000000), wk =   0.0039062
        k(  227) = (  -0.1250000   0.1250000   0.0000000), wk =   0.0039062
        k(  228) = (  -0.1250000   0.1875000   0.0000000), wk =   0.0039062
        k(  229) = (  -0.1250000   0.2500000   0.0000000), wk =   0.0039062
        k(  230) = (  -0.1250000   0.3125000   0.0000000), wk =   0.0039062
        k(  231) = (  -0.1250000   0.3750000   0.0000000), wk =   0.0039062
        k(  232) = (  -0.1250000   0.4375000   0.0000000), wk =   0.0039062
        k(  233) = (  -0.1250000  -0.5000000   0.0000000), wk =   0.0039062
        k(  234) = (  -0.1250000  -0.4375000   0.0000000), wk =   0.0039062
        k(  235) = (  -0.1250000  -0.3750000   0.0000000), wk =   0.0039062
        k(  236) = (  -0.1250000  -0.3125000   0.0000000), wk =   0.0039062
        k(  237) = (  -0.1250000  -0.2500000   0.0000000), wk =   0.0039062
        k(  238) = (  -0.1250000  -0.1875000   0.0000000), wk =   0.0039062
        k(  239) = (  -0.1250000  -0.1250000   0.0000000), wk =   0.0039062
        k(  240) = (  -0.1250000  -0.0625000   0.0000000), wk =   0.0039062
        k(  241) = (  -0.0625000   0.0000000   0.0000000), wk =   0.0039062
        k(  242) = (  -0.0625000   0.0625000   0.0000000), wk =   0.0039062
        k(  243) = (  -0.0625000   0.1250000   0.0000000), wk =   0.0039062
        k(  244) = (  -0.0625000   0.1875000   0.0000000), wk =   0.0039062
        k(  245) = (  -0.0625000   0.2500000   0.0000000), wk =   0.0039062
        k(  246) = (  -0.0625000   0.3125000   0.0000000), wk =   0.0039062
        k(  247) = (  -0.0625000   0.3750000   0.0000000), wk =   0.0039062
        k(  248) = (  -0.0625000   0.4375000   0.0000000), wk =   0.0039062
        k(  249) = (  -0.0625000  -0.5000000   0.0000000), wk =   0.0039062
        k(  250) = (  -0.0625000  -0.4375000   0.0000000), wk =   0.0039062
        k(  251) = (  -0.0625000  -0.3750000   0.0000000), wk =   0.0039062
        k(  252) = (  -0.0625000  -0.3125000   0.0000000), wk =   0.0039062
        k(  253) = (  -0.0625000  -0.2500000   0.0000000), wk =   0.0039062
        k(  254) = (  -0.0625000  -0.1875000   0.0000000), wk =   0.0039062
        k(  255) = (  -0.0625000  -0.1250000   0.0000000), wk =   0.0039062
        k(  256) = (  -0.0625000  -0.0625000   0.0000000), wk =   0.0039062

     Dense  grid:   409943 G-vectors     FFT dimensions: (  54,  54, 360)

     Smooth grid:   385631 G-vectors     FFT dimensions: (  54,  54, 324)

     Dynamical RAM for                 wfc:       2.94 MB

     Dynamical RAM for     wfc (w. buffer):       2.94 MB

     Dynamical RAM for           str. fact:       0.63 MB

     Dynamical RAM for           local pot:       0.00 MB

     Dynamical RAM for          nlocal pot:       3.75 MB

     Dynamical RAM for                qrad:       9.40 MB

     Dynamical RAM for          rho,v,vnew:       8.56 MB

     Dynamical RAM for           G-vectors:       1.32 MB

     Dynamical RAM for          h,s,v(r/c):       0.29 MB

     Dynamical RAM for          <psi|beta>:       0.12 MB

     Dynamical RAM for                 psi:       5.88 MB

     Dynamical RAM for                hpsi:       5.88 MB

     Dynamical RAM for      wfcinit/wfcrot:       4.45 MB

     Estimated static dynamical RAM per process >      30.73 MB

     Estimated max dynamical RAM per process >      42.91 MB

     Estimated total dynamical RAM >     858.19 MB
     Generating pointlists ...
     new r_m :   0.2867 (alat units)  2.1099 (a.u.) for type    1
     new r_m :   0.2867 (alat units)  2.1099 (a.u.) for type    2

     The potential is recalculated from file :
     ./tmp/nso.save/charge-density

     Starting wfcs are   36 randomized atomic wfcs +    4 random wfcs

     Band Structure Calculation
     Davidson diagonalization with overlap

     Computing kpt #:     1  of   256
     total cpu time spent up to now is        3.1 secs

     Computing kpt #:     2  of   256
     total cpu time spent up to now is        5.0 secs

     Computing kpt #:     3  of   256
     total cpu time spent up to now is        7.0 secs

     Computing kpt #:     4  of   256
     total cpu time spent up to now is        8.6 secs

     Computing kpt #:     5  of   256
     total cpu time spent up to now is       10.3 secs

     Computing kpt #:     6  of   256
     total cpu time spent up to now is       12.0 secs

     Computing kpt #:     7  of   256
     total cpu time spent up to now is       13.5 secs

     Computing kpt #:     8  of   256
     total cpu time spent up to now is       15.1 secs

     Computing kpt #:     9  of   256
     total cpu time spent up to now is       16.8 secs

     Computing kpt #:    10  of   256
     total cpu time spent up to now is       18.4 secs

     Computing kpt #:    11  of   256
     total cpu time spent up to now is       20.0 secs

     Computing kpt #:    12  of   256
     total cpu time spent up to now is       21.6 secs

     Computing kpt #:    13  of   256
     total cpu time spent up to now is       23.3 secs

     Computing kpt #:    14  of   256
     total cpu time spent up to now is       25.0 secs

     Computing kpt #:    15  of   256
     total cpu time spent up to now is       27.0 secs

     Computing kpt #:    16  of   256
     total cpu time spent up to now is       29.1 secs

     Computing kpt #:    17  of   256
     total cpu time spent up to now is       31.0 secs

     Computing kpt #:    18  of   256
     total cpu time spent up to now is       33.1 secs

     Computing kpt #:    19  of   256
     total cpu time spent up to now is       34.9 secs

     Computing kpt #:    20  of   256
     total cpu time spent up to now is       36.6 secs

     Computing kpt #:    21  of   256
     total cpu time spent up to now is       38.3 secs

     Computing kpt #:    22  of   256
     total cpu time spent up to now is       39.9 secs

     Computing kpt #:    23  of   256
     total cpu time spent up to now is       41.5 secs

     Computing kpt #:    24  of   256
     total cpu time spent up to now is       43.1 secs

     Computing kpt #:    25  of   256
     total cpu time spent up to now is       44.7 secs

     Computing kpt #:    26  of   256
     total cpu time spent up to now is       46.4 secs

     Computing kpt #:    27  of   256
     total cpu time spent up to now is       48.0 secs

     Computing kpt #:    28  of   256
     total cpu time spent up to now is       49.7 secs

     Computing kpt #:    29  of   256
     total cpu time spent up to now is       51.4 secs

     Computing kpt #:    30  of   256
     total cpu time spent up to now is       53.1 secs

     Computing kpt #:    31  of   256
     total cpu time spent up to now is       55.3 secs

     Computing kpt #:    32  of   256
     total cpu time spent up to now is       57.3 secs

     Computing kpt #:    33  of   256
     total cpu time spent up to now is       59.3 secs

     Computing kpt #:    34  of   256
     total cpu time spent up to now is       61.1 secs

     Computing kpt #:    35  of   256
     total cpu time spent up to now is       62.9 secs

     Computing kpt #:    36  of   256
     total cpu time spent up to now is       64.6 secs

     Computing kpt #:    37  of   256
     total cpu time spent up to now is       66.2 secs

     Computing kpt #:    38  of   256
     total cpu time spent up to now is       68.0 secs

     Computing kpt #:    39  of   256
     total cpu time spent up to now is       70.2 secs

     Computing kpt #:    40  of   256
     total cpu time spent up to now is       72.2 secs

     Computing kpt #:    41  of   256
     total cpu time spent up to now is       74.4 secs

     Computing kpt #:    42  of   256
     total cpu time spent up to now is       76.0 secs

     Computing kpt #:    43  of   256
     total cpu time spent up to now is       77.7 secs

     Computing kpt #:    44  of   256
     total cpu time spent up to now is       79.4 secs

     Computing kpt #:    45  of   256
     total cpu time spent up to now is       81.1 secs

     Computing kpt #:    46  of   256
     total cpu time spent up to now is       82.9 secs

     Computing kpt #:    47  of   256
     total cpu time spent up to now is       84.9 secs

     Computing kpt #:    48  of   256
     total cpu time spent up to now is       87.0 secs

     Computing kpt #:    49  of   256
     total cpu time spent up to now is       88.8 secs

     Computing kpt #:    50  of   256
     total cpu time spent up to now is       90.5 secs

     Computing kpt #:    51  of   256
     total cpu time spent up to now is       92.2 secs

     Computing kpt #:    52  of   256
     total cpu time spent up to now is       93.9 secs

     Computing kpt #:    53  of   256
     total cpu time spent up to now is       95.6 secs

     Computing kpt #:    54  of   256
     total cpu time spent up to now is       97.3 secs

     Computing kpt #:    55  of   256
     total cpu time spent up to now is       99.0 secs

     Computing kpt #:    56  of   256
     total cpu time spent up to now is      100.8 secs

     Computing kpt #:    57  of   256
     total cpu time spent up to now is      102.6 secs

     Computing kpt #:    58  of   256
     total cpu time spent up to now is      104.3 secs

     Computing kpt #:    59  of   256
     total cpu time spent up to now is      106.0 secs

     Computing kpt #:    60  of   256
     total cpu time spent up to now is      107.6 secs

     Computing kpt #:    61  of   256
     total cpu time spent up to now is      109.4 secs

     Computing kpt #:    62  of   256
     total cpu time spent up to now is      111.1 secs

     Computing kpt #:    63  of   256
     total cpu time spent up to now is      112.9 secs

     Computing kpt #:    64  of   256
     total cpu time spent up to now is      114.7 secs

     Computing kpt #:    65  of   256
     total cpu time spent up to now is      116.4 secs

     Computing kpt #:    66  of   256
     total cpu time spent up to now is      118.0 secs

     Computing kpt #:    67  of   256
     total cpu time spent up to now is      119.8 secs

     Computing kpt #:    68  of   256
     total cpu time spent up to now is      121.5 secs

     Computing kpt #:    69  of   256
     total cpu time spent up to now is      123.4 secs

     Computing kpt #:    70  of   256
     total cpu time spent up to now is      125.1 secs

     Computing kpt #:    71  of   256
     total cpu time spent up to now is      126.7 secs

     Computing kpt #:    72  of   256
     total cpu time spent up to now is      128.3 secs

     Computing kpt #:    73  of   256
     total cpu time spent up to now is      130.2 secs

     Computing kpt #:    74  of   256
     total cpu time spent up to now is      131.9 secs

     Computing kpt #:    75  of   256
     total cpu time spent up to now is      133.6 secs

     Computing kpt #:    76  of   256
     total cpu time spent up to now is      135.3 secs

     Computing kpt #:    77  of   256
     total cpu time spent up to now is      137.0 secs

     Computing kpt #:    78  of   256
     total cpu time spent up to now is      138.7 secs

     Computing kpt #:    79  of   256
     total cpu time spent up to now is      140.4 secs

     Computing kpt #:    80  of   256
     total cpu time spent up to now is      142.1 secs

     Computing kpt #:    81  of   256
     total cpu time spent up to now is      143.7 secs

     Computing kpt #:    82  of   256
     total cpu time spent up to now is      145.3 secs

     Computing kpt #:    83  of   256
     total cpu time spent up to now is      147.0 secs

     Computing kpt #:    84  of   256
     total cpu time spent up to now is      148.9 secs

     Computing kpt #:    85  of   256
     total cpu time spent up to now is      150.6 secs

     Computing kpt #:    86  of   256
     total cpu time spent up to now is      152.1 secs

     Computing kpt #:    87  of   256
     total cpu time spent up to now is      153.7 secs

     Computing kpt #:    88  of   256
     total cpu time spent up to now is      155.3 secs

     Computing kpt #:    89  of   256
     total cpu time spent up to now is      157.0 secs

     Computing kpt #:    90  of   256
     total cpu time spent up to now is      158.8 secs

     Computing kpt #:    91  of   256
     total cpu time spent up to now is      160.4 secs

     Computing kpt #:    92  of   256
     total cpu time spent up to now is      162.1 secs

     Computing kpt #:    93  of   256
     total cpu time spent up to now is      163.8 secs

     Computing kpt #:    94  of   256
     total cpu time spent up to now is      165.4 secs

     Computing kpt #:    95  of   256
     total cpu time spent up to now is      167.1 secs

     Computing kpt #:    96  of   256
     total cpu time spent up to now is      168.8 secs

     Computing kpt #:    97  of   256
     total cpu time spent up to now is      170.4 secs

     Computing kpt #:    98  of   256
     total cpu time spent up to now is      172.0 secs

     Computing kpt #:    99  of   256
     total cpu time spent up to now is      174.3 secs

     Computing kpt #:   100  of   256
     total cpu time spent up to now is      176.0 secs

     Computing kpt #:   101  of   256
     total cpu time spent up to now is      177.6 secs

     Computing kpt #:   102  of   256
     total cpu time spent up to now is      179.2 secs

     Computing kpt #:   103  of   256
     total cpu time spent up to now is      180.8 secs

     Computing kpt #:   104  of   256
     total cpu time spent up to now is      182.5 secs

     Computing kpt #:   105  of   256
     total cpu time spent up to now is      184.7 secs

     Computing kpt #:   106  of   256
     total cpu time spent up to now is      186.3 secs

     Computing kpt #:   107  of   256
     total cpu time spent up to now is      187.9 secs

     Computing kpt #:   108  of   256
     total cpu time spent up to now is      189.5 secs

     Computing kpt #:   109  of   256
     total cpu time spent up to now is      191.2 secs

     Computing kpt #:   110  of   256
     total cpu time spent up to now is      192.9 secs

     Computing kpt #:   111  of   256
     total cpu time spent up to now is      194.6 secs

     Computing kpt #:   112  of   256
     total cpu time spent up to now is      196.2 secs

     Computing kpt #:   113  of   256
     total cpu time spent up to now is      197.7 secs

     Computing kpt #:   114  of   256
     total cpu time spent up to now is      199.4 secs

     Computing kpt #:   115  of   256
     total cpu time spent up to now is      201.5 secs

     Computing kpt #:   116  of   256
     total cpu time spent up to now is      203.3 secs

     Computing kpt #:   117  of   256
     total cpu time spent up to now is      204.9 secs

     Computing kpt #:   118  of   256
     total cpu time spent up to now is      206.5 secs

     Computing kpt #:   119  of   256
     total cpu time spent up to now is      208.2 secs

     Computing kpt #:   120  of   256
     total cpu time spent up to now is      210.2 secs

     Computing kpt #:   121  of   256
     total cpu time spent up to now is      211.8 secs

     Computing kpt #:   122  of   256
     total cpu time spent up to now is      213.4 secs

     Computing kpt #:   123  of   256
     total cpu time spent up to now is      215.0 secs

     Computing kpt #:   124  of   256
     total cpu time spent up to now is      216.7 secs

     Computing kpt #:   125  of   256
     total cpu time spent up to now is      218.4 secs

     Computing kpt #:   126  of   256
     total cpu time spent up to now is      220.1 secs

     Computing kpt #:   127  of   256
     total cpu time spent up to now is      221.8 secs

     Computing kpt #:   128  of   256
     total cpu time spent up to now is      223.5 secs

     Computing kpt #:   129  of   256
     total cpu time spent up to now is      225.1 secs

     Computing kpt #:   130  of   256
     total cpu time spent up to now is      226.7 secs

     Computing kpt #:   131  of   256
     total cpu time spent up to now is      228.9 secs

     Computing kpt #:   132  of   256
     total cpu time spent up to now is      230.7 secs

     Computing kpt #:   133  of   256
     total cpu time spent up to now is      232.6 secs

     Computing kpt #:   134  of   256
     total cpu time spent up to now is      234.3 secs

     Computing kpt #:   135  of   256
     total cpu time spent up to now is      236.6 secs

     Computing kpt #:   136  of   256
     total cpu time spent up to now is      238.2 secs

     Computing kpt #:   137  of   256
     total cpu time spent up to now is      240.0 secs

     Computing kpt #:   138  of   256
     total cpu time spent up to now is      241.7 secs

     Computing kpt #:   139  of   256
     total cpu time spent up to now is      243.9 secs

     Computing kpt #:   140  of   256
     total cpu time spent up to now is      245.8 secs

     Computing kpt #:   141  of   256
     total cpu time spent up to now is      247.7 secs

     Computing kpt #:   142  of   256
     total cpu time spent up to now is      249.6 secs

     Computing kpt #:   143  of   256
     total cpu time spent up to now is      251.8 secs

     Computing kpt #:   144  of   256
     total cpu time spent up to now is      253.5 secs

     Computing kpt #:   145  of   256
     total cpu time spent up to now is      255.1 secs

     Computing kpt #:   146  of   256
     total cpu time spent up to now is      256.7 secs

     Computing kpt #:   147  of   256
     total cpu time spent up to now is      258.4 secs

     Computing kpt #:   148  of   256
     total cpu time spent up to now is      260.1 secs

     Computing kpt #:   149  of   256
     total cpu time spent up to now is      261.8 secs

     Computing kpt #:   150  of   256
     total cpu time spent up to now is      263.5 secs

     Computing kpt #:   151  of   256
     total cpu time spent up to now is      265.2 secs

     Computing kpt #:   152  of   256
     total cpu time spent up to now is      266.7 secs

     Computing kpt #:   153  of   256
     total cpu time spent up to now is      268.4 secs

     Computing kpt #:   154  of   256
     total cpu time spent up to now is      270.5 secs

     Computing kpt #:   155  of   256
     total cpu time spent up to now is      272.2 secs

     Computing kpt #:   156  of   256
     total cpu time spent up to now is      273.9 secs

     Computing kpt #:   157  of   256
     total cpu time spent up to now is      275.5 secs

     Computing kpt #:   158  of   256
     total cpu time spent up to now is      277.2 secs

     Computing kpt #:   159  of   256
     total cpu time spent up to now is      279.4 secs

     Computing kpt #:   160  of   256
     total cpu time spent up to now is      281.1 secs

     Computing kpt #:   161  of   256
     total cpu time spent up to now is      282.7 secs

     Computing kpt #:   162  of   256
     total cpu time spent up to now is      284.4 secs

     Computing kpt #:   163  of   256
     total cpu time spent up to now is      286.0 secs

     Computing kpt #:   164  of   256
     total cpu time spent up to now is      287.7 secs

     Computing kpt #:   165  of   256
     total cpu time spent up to now is      289.4 secs

     Computing kpt #:   166  of   256
     total cpu time spent up to now is      291.0 secs

     Computing kpt #:   167  of   256
     total cpu time spent up to now is      292.6 secs

     Computing kpt #:   168  of   256
     total cpu time spent up to now is      294.3 secs

     Computing kpt #:   169  of   256
     total cpu time spent up to now is      296.3 secs

     Computing kpt #:   170  of   256
     total cpu time spent up to now is      298.1 secs

     Computing kpt #:   171  of   256
     total cpu time spent up to now is      299.8 secs

     Computing kpt #:   172  of   256
     total cpu time spent up to now is      301.3 secs

     Computing kpt #:   173  of   256
     total cpu time spent up to now is      302.9 secs

     Computing kpt #:   174  of   256
     total cpu time spent up to now is      304.6 secs

     Computing kpt #:   175  of   256
     total cpu time spent up to now is      306.8 secs

     Computing kpt #:   176  of   256
     total cpu time spent up to now is      308.4 secs

     Computing kpt #:   177  of   256
     total cpu time spent up to now is      310.1 secs

     Computing kpt #:   178  of   256
     total cpu time spent up to now is      311.8 secs

     Computing kpt #:   179  of   256
     total cpu time spent up to now is      313.5 secs

     Computing kpt #:   180  of   256
     total cpu time spent up to now is      315.2 secs

     Computing kpt #:   181  of   256
     total cpu time spent up to now is      316.9 secs

     Computing kpt #:   182  of   256
     total cpu time spent up to now is      318.6 secs

     Computing kpt #:   183  of   256
     total cpu time spent up to now is      320.2 secs

     Computing kpt #:   184  of   256
     total cpu time spent up to now is      321.9 secs

     Computing kpt #:   185  of   256
     total cpu time spent up to now is      323.6 secs

     Computing kpt #:   186  of   256
     total cpu time spent up to now is      325.3 secs

     Computing kpt #:   187  of   256
     total cpu time spent up to now is      326.9 secs

     Computing kpt #:   188  of   256
     total cpu time spent up to now is      328.4 secs

     Computing kpt #:   189  of   256
     total cpu time spent up to now is      330.1 secs

     Computing kpt #:   190  of   256
     total cpu time spent up to now is      331.8 secs

     Computing kpt #:   191  of   256
     total cpu time spent up to now is      333.5 secs

     Computing kpt #:   192  of   256
     total cpu time spent up to now is      335.1 secs

     Computing kpt #:   193  of   256
     total cpu time spent up to now is      336.8 secs

     Computing kpt #:   194  of   256
     total cpu time spent up to now is      338.4 secs

     Computing kpt #:   195  of   256
     total cpu time spent up to now is      340.2 secs

     Computing kpt #:   196  of   256
     total cpu time spent up to now is      341.9 secs

     Computing kpt #:   197  of   256
     total cpu time spent up to now is      343.6 secs

     Computing kpt #:   198  of   256
     total cpu time spent up to now is      345.4 secs

     Computing kpt #:   199  of   256
     total cpu time spent up to now is      347.0 secs

     Computing kpt #:   200  of   256
     total cpu time spent up to now is      348.7 secs

     Computing kpt #:   201  of   256
     total cpu time spent up to now is      350.6 secs

     Computing kpt #:   202  of   256
     total cpu time spent up to now is      352.3 secs

     Computing kpt #:   203  of   256
     total cpu time spent up to now is      353.9 secs

     Computing kpt #:   204  of   256
     total cpu time spent up to now is      355.6 secs

     Computing kpt #:   205  of   256
     total cpu time spent up to now is      357.5 secs

     Computing kpt #:   206  of   256
     total cpu time spent up to now is      359.3 secs

     Computing kpt #:   207  of   256
     total cpu time spent up to now is      361.0 secs

     Computing kpt #:   208  of   256
     total cpu time spent up to now is      362.7 secs

     Computing kpt #:   209  of   256
     total cpu time spent up to now is      364.4 secs

     Computing kpt #:   210  of   256
     total cpu time spent up to now is      366.2 secs

     Computing kpt #:   211  of   256
     total cpu time spent up to now is      368.0 secs

     Computing kpt #:   212  of   256
     total cpu time spent up to now is      369.7 secs

     Computing kpt #:   213  of   256
     total cpu time spent up to now is      371.4 secs

     Computing kpt #:   214  of   256
     total cpu time spent up to now is      373.1 secs

     Computing kpt #:   215  of   256
     total cpu time spent up to now is      374.8 secs

     Computing kpt #:   216  of   256
     total cpu time spent up to now is      376.5 secs

     Computing kpt #:   217  of   256
     total cpu time spent up to now is      378.3 secs

     Computing kpt #:   218  of   256
     total cpu time spent up to now is      380.0 secs

     Computing kpt #:   219  of   256
     total cpu time spent up to now is      381.7 secs

     Computing kpt #:   220  of   256
     total cpu time spent up to now is      383.5 secs

     Computing kpt #:   221  of   256
     total cpu time spent up to now is      385.2 secs

     Computing kpt #:   222  of   256
     total cpu time spent up to now is      386.9 secs

     Computing kpt #:   223  of   256
     total cpu time spent up to now is      388.6 secs

     Computing kpt #:   224  of   256
     total cpu time spent up to now is      390.3 secs

     Computing kpt #:   225  of   256
     total cpu time spent up to now is      392.3 secs

     Computing kpt #:   226  of   256
     total cpu time spent up to now is      394.5 secs

     Computing kpt #:   227  of   256
     total cpu time spent up to now is      396.5 secs

     Computing kpt #:   228  of   256
     total cpu time spent up to now is      398.3 secs

     Computing kpt #:   229  of   256
     total cpu time spent up to now is      400.0 secs

     Computing kpt #:   230  of   256
     total cpu time spent up to now is      401.7 secs

     Computing kpt #:   231  of   256
     total cpu time spent up to now is      403.3 secs

     Computing kpt #:   232  of   256
     total cpu time spent up to now is      405.0 secs

     Computing kpt #:   233  of   256
     total cpu time spent up to now is      407.2 secs

     Computing kpt #:   234  of   256
     total cpu time spent up to now is      409.4 secs

     Computing kpt #:   235  of   256
     total cpu time spent up to now is      411.6 secs

     Computing kpt #:   236  of   256
     total cpu time spent up to now is      413.4 secs

     Computing kpt #:   237  of   256
     total cpu time spent up to now is      415.0 secs

     Computing kpt #:   238  of   256
     total cpu time spent up to now is      416.7 secs

     Computing kpt #:   239  of   256
     total cpu time spent up to now is      418.4 secs

     Computing kpt #:   240  of   256
     total cpu time spent up to now is      420.2 secs

     Computing kpt #:   241  of   256
     total cpu time spent up to now is      422.2 secs

     Computing kpt #:   242  of   256
     total cpu time spent up to now is      424.2 secs

     Computing kpt #:   243  of   256
     total cpu time spent up to now is      426.4 secs

     Computing kpt #:   244  of   256
     total cpu time spent up to now is      428.3 secs

     Computing kpt #:   245  of   256
     total cpu time spent up to now is      430.0 secs

     Computing kpt #:   246  of   256
     total cpu time spent up to now is      431.7 secs

     Computing kpt #:   247  of   256
     total cpu time spent up to now is      433.4 secs

     Computing kpt #:   248  of   256
     total cpu time spent up to now is      435.0 secs

     Computing kpt #:   249  of   256
     total cpu time spent up to now is      436.6 secs

     Computing kpt #:   250  of   256
     total cpu time spent up to now is      438.2 secs

     Computing kpt #:   251  of   256
     total cpu time spent up to now is      439.8 secs

     Computing kpt #:   252  of   256
     total cpu time spent up to now is      441.4 secs

     Computing kpt #:   253  of   256
     total cpu time spent up to now is      443.1 secs

     Computing kpt #:   254  of   256
     total cpu time spent up to now is      444.8 secs

     Computing kpt #:   255  of   256
     total cpu time spent up to now is      446.6 secs

     Computing kpt #:   256  of   256
     total cpu time spent up to now is      448.7 secs

     ethr =  3.12E-09,  avg # of iterations = 37.5

     total cpu time spent up to now is      448.7 secs

     End of band structure calculation

          k = 0.0000 0.0000 0.0000 ( 48107 PWs)   bands (ev):

  -105.8891-104.5558 -67.4782 -67.1041 -65.5948 -64.9112 -64.4889 -64.1690
   -15.7926 -15.5784 -14.8529 -14.6100  -6.8942  -6.7206  -5.7826  -5.6741
    -4.7141  -4.4260  -4.2021  -4.1916  -4.0509  -3.9747  -3.8388  -3.2707
    -3.2627  -3.1203  -2.8737  -2.7889  -2.4571  -2.2173  -2.2038  -1.6401
    -1.0561  -0.6526   1.7714   1.9000   2.5107   2.6128   2.6839   2.7545

     occupation numbers 
     1.0000   1.0000   1.0000   1.0000   1.0000   1.0000   1.0000   1.0000
     1.0000   1.0000   1.0000   1.0000   1.0000   1.0000   1.0000   1.0000
     1.0000   1.0000   1.0000   1.0000   1.0000   1.0000   1.0000   1.0000
     1.0000   1.0000   1.0000   1.0000   1.0000   1.0000   1.0000   0.1579
     0.0000   0.0000   0.0000   0.0000   0.0000   0.0000   0.0000   0.0000

          k = 0.0000 0.0722 0.0000 ( 48113 PWs)   bands (ev):

  -105.8891-104.5558 -67.4782 -67.1041 -65.5948 -64.9112 -64.4889 -64.1690
   -15.7623 -15.5477 -14.8362 -14.5928  -6.8644  -6.6938  -5.8056  -5.6896
    -4.7859  -4.4737  -4.2911  -4.2304  -4.0456  -3.9720  -3.7739  -3.3279
    -3.3076  -3.1764  -2.9193  -2.7837  -2.6268  -2.3226  -2.2231  -1.7618
    -1.1195  -0.7590   1.9170   2.0431   2.7043   2.7589   2.7886   2.8617

     occupation numbers 
     1.0000   1.0000   1.0000   1.0000   1.0000   1.0000   1.0000   1.0000
     1.0000   1.0000   1.0000   1.0000   1.0000   1.0000   1.0000   1.0000
     1.0000   1.0000   1.0000   1.0000   1.0000   1.0000   1.0000   1.0000
     1.0000   1.0000   1.0000   1.0000   1.0000   1.0000   1.0000   1.0000
     0.0000   0.0000   0.0000   0.0000   0.0000   0.0000   0.0000   0.0000

          k = 0.0000 0.1443 0.0000 ( 48142 PWs)   bands (ev):

  -105.8891-104.5558 -67.4782 -67.1041 -65.5948 -64.9113 -64.4889 -64.1691
   -15.6734 -15.4575 -14.7884 -14.5436  -6.7810  -6.6214  -5.8952  -5.7006
    -5.0295  -4.5658  -4.5124  -4.3013  -4.1689  -4.0254  -3.6668  -3.5302
    -3.3808  -3.2374  -3.0940  -2.8809  -2.7579  -2.4914  -2.4457  -1.9408
    -1.3346  -0.8993   2.2421   2.3650   2.8196   2.8952   2.9730   3.1115

     occupation numbers 
     1.0000   1.0000   1.0000   1.0000   1.0000   1.0000   1.0000   1.0000
     1.0000   1.0000   1.0000   1.0000   1.0000   1.0000   1.0000   1.0000
     1.0000   1.0000   1.0000   1.0000   1.0000   1.0000   1.0000   1.0000
     1.0000   1.0000   1.0000   1.0000   1.0000   1.0000   1.0000   1.0000
     0.0000   0.0000   0.0000   0.0000   0.0000   0.0000   0.0000   0.0000

          k = 0.0000 0.2165 0.0000 ( 48158 PWs)   bands (ev):

  -105.8891-104.5558 -67.4782 -67.1041 -65.5949 -64.9113 -64.4889 -64.1691
   -15.5322 -15.3142 -14.7168 -14.4696  -6.6687  -6.5343  -6.0358  -5.6973
    -5.4023  -5.0172  -4.5908  -4.5197  -4.3702  -4.0794  -3.7546  -3.6086
    -3.4622  -3.3611  -3.2335  -3.0151  -2.8290  -2.7620  -2.5990  -2.0439
    -1.5333  -0.9728   2.4523   2.6446   2.6734   2.7589   3.0106   3.1029

     occupation numbers 
     1.0000   1.0000   1.0000   1.0000   1.0000   1.0000   1.0000   1.0000
     1.0000   1.0000   1.0000   1.0000   1.0000   1.0000   1.0000   1.0000
     1.0000   1.0000   1.0000   1.0000   1.0000   1.0000   1.0000   1.0000
     1.0000   1.0000   1.0000   1.0000   1.0000   1.0000   1.0000   1.0000
     0.0000   0.0000   0.0000   0.0000   0.0000   0.0000   0.0000   0.0000

          k = 0.0000 0.2887 0.0000 ( 48148 PWs)   bands (ev):

  -105.8891-104.5558 -67.4783 -67.1041 -65.5949 -64.9113 -64.4889 -64.1692
   -15.3503 -15.1291 -14.6335 -14.3837  -6.6141  -6.5100  -6.2098  -5.8440
    -5.6962  -5.4471  -4.9767  -4.5192  -4.4670  -4.1271  -3.9804  -3.7688
    -3.6464  -3.4715  -3.2836  -3.1887  -2.9323  -2.7947  -2.7167  -2.1202
    -1.5454  -1.0102   1.9736   2.1733   2.9336   3.0475   3.2300   3.3346

     occupation numbers 
     1.0000   1.0000   1.0000   1.0000   1.0000   1.0000   1.0000   1.0000
     1.0000   1.0000   1.0000   1.0000   1.0000   1.0000   1.0000   1.0000
     1.0000   1.0000   1.0000   1.0000   1.0000   1.0000   1.0000   1.0000
     1.0000   1.0000   1.0000   1.0000   1.0000   1.0000   1.0000   1.0000
     0.0000   0.0000   0.0000   0.0000   0.0000   0.0000   0.0000   0.0000

          k = 0.0000 0.3608 0.0000 ( 48214 PWs)   bands (ev):

  -105.8891-104.5558 -67.4783 -67.1041 -65.5950 -64.9114 -64.4889 -64.1693
   -15.1449 -14.9197 -14.5557 -14.3033  -6.8384  -6.6639  -6.4369  -6.1335
    -5.7241  -5.5987  -5.1215  -4.5806  -4.5084  -4.2782  -4.1381  -3.9818
    -3.7972  -3.6020  -3.4810  -3.2572  -2.9613  -2.8426  -2.7073  -2.1683
    -1.4307  -1.0257   1.5112   1.7236   3.0639   3.2058   3.4845   3.6140

     occupation numbers 
     1.0000   1.0000   1.0000   1.0000   1.0000   1.0000   1.0000   1.0000
     1.0000   1.0000   1.0000   1.0000   1.0000   1.0000   1.0000   1.0000
     1.0000   1.0000   1.0000   1.0000   1.0000   1.0000   1.0000   1.0000
     1.0000   1.0000   1.0000   1.0000   1.0000   1.0000   1.0000   1.0000
     0.0000   0.0000   0.0000   0.0000   0.0000   0.0000   0.0000   0.0000

          k = 0.0000 0.4330 0.0000 ( 48212 PWs)   bands (ev):

  -105.8890-104.5558 -67.4784 -67.1041 -65.5951 -64.9114 -64.4888 -64.1693
   -14.9407 -14.7109 -14.5034 -14.2493  -7.2220  -7.0329  -6.5687  -6.3078
    -5.7156  -5.5729  -5.0288  -4.7117  -4.5108  -4.4219  -4.1903  -4.0945
    -3.9741  -3.7372  -3.6753  -3.2724  -3.0433  -2.9395  -2.5943  -2.1921
    -1.2973  -1.0281   1.1585   1.3876   3.0588   3.2082   3.5049   3.6682

     occupation numbers 
     1.0000   1.0000   1.0000   1.0000   1.0000   1.0000   1.0000   1.0000
     1.0000   1.0000   1.0000   1.0000   1.0000   1.0000   1.0000   1.0000
     1.0000   1.0000   1.0000   1.0000   1.0000   1.0000   1.0000   1.0000
     1.0000   1.0000   1.0000   1.0000   1.0000   1.0000   1.0000   1.0000
     0.0000   0.0000   0.0000   0.0000   0.0000   0.0000   0.0000   0.0000

          k = 0.0000 0.5052 0.0000 ( 48214 PWs)   bands (ev):

  -105.8890-104.5558 -67.4784 -67.1041 -65.5951 -64.9114 -64.4888 -64.1694
   -14.7711 -14.5374 -14.4916 -14.2370  -7.5131  -7.3231  -6.6510  -6.4449
    -5.7115  -5.5325  -4.8509  -4.7635  -4.5483  -4.4615  -4.2317  -4.1443
    -4.0699  -3.9034  -3.7938  -3.2811  -3.1156  -3.0183  -2.5197  -2.2011
    -1.2084  -1.0237   0.9450   1.1913   2.9975   3.1402   3.5418   3.7184

     occupation numbers 
     1.0000   1.0000   1.0000   1.0000   1.0000   1.0000   1.0000   1.0000
     1.0000   1.0000   1.0000   1.0000   1.0000   1.0000   1.0000   1.0000
     1.0000   1.0000   1.0000   1.0000   1.0000   1.0000   1.0000   1.0000
     1.0000   1.0000   1.0000   1.0000   1.0000   1.0000   1.0000   1.0000
     0.0000   0.0000   0.0000   0.0000   0.0000   0.0000   0.0000   0.0000

          k = 0.0000-0.5774 0.0000 ( 48254 PWs)   bands (ev):

  -105.8890-104.5558 -67.4784 -67.1041 -65.5951 -64.9114 -64.4888 -64.1694
   -14.6940 -14.5031 -14.4589 -14.2479  -7.6182  -7.4280  -6.6810  -6.4973
    -5.7112  -5.5274  -4.7768  -4.6934  -4.6226  -4.4719  -4.2392  -4.1608
    -4.0701  -3.9931  -3.8502  -3.2840  -3.1449  -3.0497  -2.4958  -2.2030
    -1.1801  -1.0202   0.8749   1.1292   2.9628   3.1020   3.6889   3.8314

     occupation numbers 
     1.0000   1.0000   1.0000   1.0000   1.0000   1.0000   1.0000   1.0000
     1.0000   1.0000   1.0000   1.0000   1.0000   1.0000   1.0000   1.0000
     1.0000   1.0000   1.0000   1.0000   1.0000   1.0000   1.0000   1.0000
     1.0000   1.0000   1.0000   1.0000   1.0000   1.0000   1.0000   1.0000
     0.0000   0.0000   0.0000   0.0000   0.0000   0.0000   0.0000   0.0000

          k = 0.0000-0.5052 0.0000 ( 48214 PWs)   bands (ev):

  -105.8890-104.5558 -67.4784 -67.1041 -65.5951 -64.9114 -64.4888 -64.1694
   -14.7711 -14.5374 -14.4916 -14.2370  -7.5131  -7.3231  -6.6510  -6.4449
    -5.7115  -5.5325  -4.8509  -4.7635  -4.5483  -4.4615  -4.2317  -4.1443
    -4.0699  -3.9034  -3.7938  -3.2811  -3.1156  -3.0183  -2.5197  -2.2011
    -1.2084  -1.0237   0.9450   1.1913   2.9975   3.1402   3.5418   3.7184

     occupation numbers 
     1.0000   1.0000   1.0000   1.0000   1.0000   1.0000   1.0000   1.0000
     1.0000   1.0000   1.0000   1.0000   1.0000   1.0000   1.0000   1.0000
     1.0000   1.0000   1.0000   1.0000   1.0000   1.0000   1.0000   1.0000
     1.0000   1.0000   1.0000   1.0000   1.0000   1.0000   1.0000   1.0000
     0.0000   0.0000   0.0000   0.0000   0.0000   0.0000   0.0000   0.0000

          k = 0.0000-0.4330 0.0000 ( 48212 PWs)   bands (ev):

  -105.8890-104.5558 -67.4784 -67.1041 -65.5951 -64.9114 -64.4888 -64.1693
   -14.9407 -14.7109 -14.5034 -14.2493  -7.2220  -7.0329  -6.5687  -6.3078
    -5.7156  -5.5729  -5.0288  -4.7117  -4.5108  -4.4219  -4.1903  -4.0945
    -3.9741  -3.7372  -3.6753  -3.2724  -3.0433  -2.9395  -2.5943  -2.1921
    -1.2973  -1.0281   1.1585   1.3876   3.0588   3.2082   3.5049   3.6682

     occupation numbers 
     1.0000   1.0000   1.0000   1.0000   1.0000   1.0000   1.0000   1.0000
     1.0000   1.0000   1.0000   1.0000   1.0000   1.0000   1.0000   1.0000
     1.0000   1.0000   1.0000   1.0000   1.0000   1.0000   1.0000   1.0000
     1.0000   1.0000   1.0000   1.0000   1.0000   1.0000   1.0000   1.0000
     0.0000   0.0000   0.0000   0.0000   0.0000   0.0000   0.0000   0.0000

          k = 0.0000-0.3608 0.0000 ( 48214 PWs)   bands (ev):

  -105.8891-104.5558 -67.4783 -67.1041 -65.5950 -64.9114 -64.4889 -64.1693
   -15.1449 -14.9197 -14.5557 -14.3033  -6.8384  -6.6639  -6.4369  -6.1335
    -5.7241  -5.5987  -5.1215  -4.5806  -4.5084  -4.2782  -4.1381  -3.9818
    -3.7972  -3.6020  -3.4810  -3.2572  -2.9613  -2.8426  -2.7073  -2.1683
[...]
    -3.9442  -3.8465  -3.5657  -3.2065  -3.0580  -2.9069  -2.7217  -2.3923
    -1.4535  -1.1572   1.6397   1.8757   3.4143   3.5642   3.9430   4.0786

     occupation numbers 
     1.0000   1.0000   1.0000   1.0000   1.0000   1.0000   1.0000   1.0000
     1.0000   1.0000   1.0000   1.0000   1.0000   1.0000   1.0000   1.0000
     1.0000   1.0000   1.0000   1.0000   1.0000   1.0000   1.0000   1.0000
     1.0000   1.0000   1.0000   1.0000   1.0000   1.0000   1.0000   1.0000
     0.0000   0.0000   0.0000   0.0000   0.0000   0.0000   0.0000   0.0000

          k =-0.1250-0.3608 0.0000 ( 48162 PWs)   bands (ev):

  -105.8891-104.5558 -67.4783 -67.1041 -65.5950 -64.9114 -64.4889 -64.1693
   -15.0813 -14.8546 -14.5301 -14.2770  -6.8039  -6.6304  -6.4473  -6.1621
    -5.7508  -5.5418  -5.1889  -5.0377  -4.6996  -4.3989  -4.1635  -3.9943
    -3.8044  -3.6914  -3.4202  -3.2324  -2.9702  -2.8734  -2.7373  -2.3920
    -1.4939  -1.2026   1.9849   2.2151   3.2740   3.4171   3.6692   3.7729

     occupation numbers 
     1.0000   1.0000   1.0000   1.0000   1.0000   1.0000   1.0000   1.0000
     1.0000   1.0000   1.0000   1.0000   1.0000   1.0000   1.0000   1.0000
     1.0000   1.0000   1.0000   1.0000   1.0000   1.0000   1.0000   1.0000
     1.0000   1.0000   1.0000   1.0000   1.0000   1.0000   1.0000   1.0000
     0.0000   0.0000   0.0000   0.0000   0.0000   0.0000   0.0000   0.0000

          k =-0.1250-0.2887 0.0000 ( 48141 PWs)   bands (ev):

  -105.8891-104.5558 -67.4783 -67.1041 -65.5950 -64.9113 -64.4889 -64.1692
   -15.2772 -15.0547 -14.6013 -14.3504  -6.5945  -6.4965  -6.2341  -5.9344
    -5.7059  -5.3742  -5.1182  -4.9219  -4.6360  -4.1615  -4.0145  -3.8686
    -3.6509  -3.5214  -3.2826  -3.2357  -2.8992  -2.8260  -2.6562  -2.4149
    -1.4555  -1.2783   2.3868   2.6160   3.1440   3.2453   3.2922   3.3694

     occupation numbers 
     1.0000   1.0000   1.0000   1.0000   1.0000   1.0000   1.0000   1.0000
     1.0000   1.0000   1.0000   1.0000   1.0000   1.0000   1.0000   1.0000
     1.0000   1.0000   1.0000   1.0000   1.0000   1.0000   1.0000   1.0000
     1.0000   1.0000   1.0000   1.0000   1.0000   1.0000   1.0000   1.0000
     0.0000   0.0000   0.0000   0.0000   0.0000   0.0000   0.0000   0.0000

          k =-0.1250-0.2165 0.0000 ( 48125 PWs)   bands (ev):

  -105.8891-104.5558 -67.4783 -67.1041 -65.5949 -64.9113 -64.4889 -64.1692
   -15.4517 -15.2324 -14.6779 -14.4295  -6.6171  -6.4995  -6.0876  -5.7469
    -5.5162  -5.0563  -4.8346  -4.6982  -4.5685  -4.0239  -3.9250  -3.6243
    -3.5527  -3.3669  -3.2384  -3.2179  -2.8355  -2.7079  -2.4793  -2.4063
    -1.3926  -1.2533   2.6754   2.8775   2.9070   3.0153   3.0566   3.1465

     occupation numbers 
     1.0000   1.0000   1.0000   1.0000   1.0000   1.0000   1.0000   1.0000
     1.0000   1.0000   1.0000   1.0000   1.0000   1.0000   1.0000   1.0000
     1.0000   1.0000   1.0000   1.0000   1.0000   1.0000   1.0000   1.0000
     1.0000   1.0000   1.0000   1.0000   1.0000   1.0000   1.0000   1.0000
     0.0000   0.0000   0.0000   0.0000   0.0000   0.0000   0.0000   0.0000

          k =-0.1250-0.1443 0.0000 ( 48136 PWs)   bands (ev):

  -105.8891-104.5558 -67.4782 -67.1041 -65.5949 -64.9113 -64.4889 -64.1691
   -15.5876 -15.3704 -14.7441 -14.4979  -6.7080  -6.5623  -5.9772  -5.7074
    -5.2417  -4.7790  -4.5436  -4.4706  -4.3836  -4.0329  -3.7216  -3.5826
    -3.4154  -3.3004  -3.1923  -3.0650  -2.7897  -2.5780  -2.5158  -2.1135
    -1.4114  -1.0350   2.4775   2.6038   2.8720   2.9424   3.0032   3.1042

     occupation numbers 
     1.0000   1.0000   1.0000   1.0000   1.0000   1.0000   1.0000   1.0000
     1.0000   1.0000   1.0000   1.0000   1.0000   1.0000   1.0000   1.0000
     1.0000   1.0000   1.0000   1.0000   1.0000   1.0000   1.0000   1.0000
     1.0000   1.0000   1.0000   1.0000   1.0000   1.0000   1.0000   1.0000
     0.0000   0.0000   0.0000   0.0000   0.0000   0.0000   0.0000   0.0000

          k =-0.0625-0.0361 0.0000 ( 48113 PWs)   bands (ev):

  -105.8891-104.5558 -67.4782 -67.1041 -65.5948 -64.9112 -64.4889 -64.1690
   -15.7623 -15.5477 -14.8362 -14.5928  -6.8644  -6.6938  -5.8056  -5.6896
    -4.7859  -4.4737  -4.2911  -4.2304  -4.0456  -3.9720  -3.7739  -3.3279
    -3.3076  -3.1764  -2.9193  -2.7837  -2.6268  -2.3226  -2.2231  -1.7618
    -1.1195  -0.7590   1.9170   2.0431   2.7043   2.7589   2.7886   2.8617

     occupation numbers 
     1.0000   1.0000   1.0000   1.0000   1.0000   1.0000   1.0000   1.0000
     1.0000   1.0000   1.0000   1.0000   1.0000   1.0000   1.0000   1.0000
     1.0000   1.0000   1.0000   1.0000   1.0000   1.0000   1.0000   1.0000
     1.0000   1.0000   1.0000   1.0000   1.0000   1.0000   1.0000   1.0000
     0.0000   0.0000   0.0000   0.0000   0.0000   0.0000   0.0000   0.0000

          k =-0.0625 0.0361 0.0000 ( 48113 PWs)   bands (ev):

  -105.8891-104.5558 -67.4782 -67.1041 -65.5948 -64.9112 -64.4889 -64.1690
   -15.7623 -15.5477 -14.8362 -14.5928  -6.8644  -6.6938  -5.8056  -5.6896
    -4.7859  -4.4737  -4.2911  -4.2304  -4.0456  -3.9720  -3.7739  -3.3279
    -3.3076  -3.1764  -2.9193  -2.7837  -2.6268  -2.3226  -2.2231  -1.7618
    -1.1195  -0.7590   1.9170   2.0431   2.7043   2.7589   2.7886   2.8617

     occupation numbers 
     1.0000   1.0000   1.0000   1.0000   1.0000   1.0000   1.0000   1.0000
     1.0000   1.0000   1.0000   1.0000   1.0000   1.0000   1.0000   1.0000
     1.0000   1.0000   1.0000   1.0000   1.0000   1.0000   1.0000   1.0000
     1.0000   1.0000   1.0000   1.0000   1.0000   1.0000   1.0000   1.0000
     0.0000   0.0000   0.0000   0.0000   0.0000   0.0000   0.0000   0.0000

          k =-0.0625 0.1083 0.0000 ( 48119 PWs)   bands (ev):

  -105.8891-104.5558 -67.4782 -67.1041 -65.5948 -64.9112 -64.4889 -64.1691
   -15.7026 -15.4872 -14.8039 -14.5596  -6.8076  -6.6441  -5.8633  -5.7015
    -4.9457  -4.5152  -4.4344  -4.3179  -4.1069  -4.0009  -3.6915  -3.4703
    -3.3669  -3.2221  -3.0190  -2.8737  -2.7560  -2.4428  -2.3169  -1.9372
    -1.2399  -0.8974   2.1506   2.2733   2.7888   2.8667   3.1074   3.1683

     occupation numbers 
     1.0000   1.0000   1.0000   1.0000   1.0000   1.0000   1.0000   1.0000
     1.0000   1.0000   1.0000   1.0000   1.0000   1.0000   1.0000   1.0000
     1.0000   1.0000   1.0000   1.0000   1.0000   1.0000   1.0000   1.0000
     1.0000   1.0000   1.0000   1.0000   1.0000   1.0000   1.0000   1.0000
     0.0000   0.0000   0.0000   0.0000   0.0000   0.0000   0.0000   0.0000

          k =-0.0625 0.1804 0.0000 ( 48136 PWs)   bands (ev):

  -105.8891-104.5558 -67.4782 -67.1041 -65.5949 -64.9113 -64.4889 -64.1691
   -15.5876 -15.3704 -14.7441 -14.4979  -6.7080  -6.5623  -5.9772  -5.7074
    -5.2417  -4.7790  -4.5436  -4.4706  -4.3836  -4.0329  -3.7216  -3.5826
    -3.4154  -3.3004  -3.1923  -3.0650  -2.7897  -2.5780  -2.5158  -2.1135
    -1.4114  -1.0350   2.4775   2.6038   2.8720   2.9424   3.0032   3.1042

     occupation numbers 
     1.0000   1.0000   1.0000   1.0000   1.0000   1.0000   1.0000   1.0000
     1.0000   1.0000   1.0000   1.0000   1.0000   1.0000   1.0000   1.0000
     1.0000   1.0000   1.0000   1.0000   1.0000   1.0000   1.0000   1.0000
     1.0000   1.0000   1.0000   1.0000   1.0000   1.0000   1.0000   1.0000
     0.0000   0.0000   0.0000   0.0000   0.0000   0.0000   0.0000   0.0000

          k =-0.0625 0.2526 0.0000 ( 48148 PWs)   bands (ev):

  -105.8891-104.5558 -67.4783 -67.1041 -65.5949 -64.9113 -64.4889 -64.1692
   -15.4258 -15.2060 -14.6663 -14.4176  -6.6114  -6.4998  -6.1232  -5.7374
    -5.6110  -5.2364  -4.8523  -4.5702  -4.5447  -4.0595  -3.9169  -3.6635
    -3.5892  -3.4034  -3.2516  -3.1733  -2.8679  -2.7631  -2.6471  -2.1964
    -1.5149  -1.0968   2.3573   2.5634   2.8717   2.9698   3.1244   3.2241

     occupation numbers 
     1.0000   1.0000   1.0000   1.0000   1.0000   1.0000   1.0000   1.0000
     1.0000   1.0000   1.0000   1.0000   1.0000   1.0000   1.0000   1.0000
     1.0000   1.0000   1.0000   1.0000   1.0000   1.0000   1.0000   1.0000
     1.0000   1.0000   1.0000   1.0000   1.0000   1.0000   1.0000   1.0000
     0.0000   0.0000   0.0000   0.0000   0.0000   0.0000   0.0000   0.0000

          k =-0.0625 0.3248 0.0000 ( 48173 PWs)   bands (ev):

  -105.8891-104.5558 -67.4783 -67.1041 -65.5950 -64.9113 -64.4889 -64.1692
   -15.2316 -15.0082 -14.5851 -14.3337  -6.6767  -6.5452  -6.3269  -6.0263
    -5.7238  -5.5347  -5.1069  -4.6833  -4.5615  -4.1807  -4.0652  -3.9345
    -3.7132  -3.5506  -3.3627  -3.2426  -2.9294  -2.8291  -2.7056  -2.2433
    -1.4823  -1.1080   1.8752   2.0882   3.1034   3.2312   3.3928   3.5000

     occupation numbers 
     1.0000   1.0000   1.0000   1.0000   1.0000   1.0000   1.0000   1.0000
     1.0000   1.0000   1.0000   1.0000   1.0000   1.0000   1.0000   1.0000
     1.0000   1.0000   1.0000   1.0000   1.0000   1.0000   1.0000   1.0000
     1.0000   1.0000   1.0000   1.0000   1.0000   1.0000   1.0000   1.0000
     0.0000   0.0000   0.0000   0.0000   0.0000   0.0000   0.0000   0.0000

          k =-0.0625 0.3969 0.0000 ( 48195 PWs)   bands (ev):

  -105.8890-104.5558 -67.4783 -67.1041 -65.5950 -64.9114 -64.4888 -64.1693
   -15.0258 -14.7980 -14.5190 -14.2655  -7.0147  -6.8275  -6.5111  -6.2249
    -5.7293  -5.5853  -5.1049  -4.7718  -4.5708  -4.4361  -4.1635  -4.0580
    -3.8894  -3.7008  -3.5502  -3.2509  -3.0015  -2.8889  -2.6523  -2.2677
    -1.3803  -1.0968   1.4632   1.6875   3.1884   3.3370   3.6153   3.7584

     occupation numbers 
     1.0000   1.0000   1.0000   1.0000   1.0000   1.0000   1.0000   1.0000
     1.0000   1.0000   1.0000   1.0000   1.0000   1.0000   1.0000   1.0000
     1.0000   1.0000   1.0000   1.0000   1.0000   1.0000   1.0000   1.0000
     1.0000   1.0000   1.0000   1.0000   1.0000   1.0000   1.0000   1.0000
     0.0000   0.0000   0.0000   0.0000   0.0000   0.0000   0.0000   0.0000

          k =-0.0625 0.4691 0.0000 ( 48179 PWs)   bands (ev):

  -105.8890-104.5558 -67.4784 -67.1041 -65.5951 -64.9114 -64.4888 -64.1694
   -14.8366 -14.6042 -14.4868 -14.2324  -7.3634  -7.1736  -6.6087  -6.3758
    -5.7204  -5.5401  -4.9754  -4.8192  -4.6232  -4.5300  -4.3017  -4.0818
    -4.0286  -3.8613  -3.6895  -3.2436  -3.0846  -2.9678  -2.5686  -2.2831
    -1.2806  -1.0877   1.1749   1.4136   3.2063   3.3551   3.6042   3.7733

     occupation numbers 
     1.0000   1.0000   1.0000   1.0000   1.0000   1.0000   1.0000   1.0000
     1.0000   1.0000   1.0000   1.0000   1.0000   1.0000   1.0000   1.0000
     1.0000   1.0000   1.0000   1.0000   1.0000   1.0000   1.0000   1.0000
     1.0000   1.0000   1.0000   1.0000   1.0000   1.0000   1.0000   1.0000
     0.0000   0.0000   0.0000   0.0000   0.0000   0.0000   0.0000   0.0000

          k =-0.0625-0.6134 0.0000 ( 48239 PWs)   bands (ev):

  -105.8890-104.5558 -67.4784 -67.1041 -65.5951 -64.9114 -64.4888 -64.1694
   -14.7049 -14.4932 -14.4695 -14.2383  -7.5641  -7.3741  -6.6619  -6.4678
    -5.7149  -5.5229  -4.8976  -4.8037  -4.6422  -4.5166  -4.3584  -4.1824
    -4.0443  -3.9523  -3.7931  -3.2322  -3.1342  -3.0285  -2.5164  -2.2968
    -1.2145  -1.0954   1.0308   1.2815   3.1848   3.3282   3.6999   3.8830

     occupation numbers 
     1.0000   1.0000   1.0000   1.0000   1.0000   1.0000   1.0000   1.0000
     1.0000   1.0000   1.0000   1.0000   1.0000   1.0000   1.0000   1.0000
     1.0000   1.0000   1.0000   1.0000   1.0000   1.0000   1.0000   1.0000
     1.0000   1.0000   1.0000   1.0000   1.0000   1.0000   1.0000   1.0000
     0.0000   0.0000   0.0000   0.0000   0.0000   0.0000   0.0000   0.0000

          k =-0.0625-0.5413 0.0000 ( 48239 PWs)   bands (ev):

  -105.8890-104.5558 -67.4784 -67.1041 -65.5951 -64.9114 -64.4888 -64.1694
   -14.7049 -14.4932 -14.4695 -14.2383  -7.5641  -7.3741  -6.6619  -6.4678
    -5.7149  -5.5229  -4.8976  -4.8037  -4.6422  -4.5166  -4.3584  -4.1824
    -4.0443  -3.9523  -3.7931  -3.2322  -3.1342  -3.0285  -2.5164  -2.2968
    -1.2145  -1.0954   1.0308   1.2815   3.1848   3.3282   3.6999   3.8830

     occupation numbers 
     1.0000   1.0000   1.0000   1.0000   1.0000   1.0000   1.0000   1.0000
     1.0000   1.0000   1.0000   1.0000   1.0000   1.0000   1.0000   1.0000
     1.0000   1.0000   1.0000   1.0000   1.0000   1.0000   1.0000   1.0000
     1.0000   1.0000   1.0000   1.0000   1.0000   1.0000   1.0000   1.0000
     0.0000   0.0000   0.0000   0.0000   0.0000   0.0000   0.0000   0.0000

          k =-0.0625-0.4691 0.0000 ( 48179 PWs)   bands (ev):

  -105.8890-104.5558 -67.4784 -67.1041 -65.5951 -64.9114 -64.4888 -64.1694
   -14.8366 -14.6042 -14.4868 -14.2324  -7.3634  -7.1736  -6.6087  -6.3758
    -5.7204  -5.5401  -4.9754  -4.8192  -4.6232  -4.5300  -4.3017  -4.0818
    -4.0286  -3.8613  -3.6895  -3.2436  -3.0846  -2.9678  -2.5686  -2.2831
    -1.2806  -1.0877   1.1749   1.4136   3.2063   3.3551   3.6042   3.7733

     occupation numbers 
     1.0000   1.0000   1.0000   1.0000   1.0000   1.0000   1.0000   1.0000
     1.0000   1.0000   1.0000   1.0000   1.0000   1.0000   1.0000   1.0000
     1.0000   1.0000   1.0000   1.0000   1.0000   1.0000   1.0000   1.0000
     1.0000   1.0000   1.0000   1.0000   1.0000   1.0000   1.0000   1.0000
     0.0000   0.0000   0.0000   0.0000   0.0000   0.0000   0.0000   0.0000

          k =-0.0625-0.3969 0.0000 ( 48195 PWs)   bands (ev):

  -105.8890-104.5558 -67.4783 -67.1041 -65.5950 -64.9114 -64.4888 -64.1693
   -15.0258 -14.7980 -14.5190 -14.2655  -7.0147  -6.8275  -6.5111  -6.2249
    -5.7293  -5.5853  -5.1049  -4.7718  -4.5708  -4.4361  -4.1635  -4.0580
    -3.8894  -3.7008  -3.5502  -3.2509  -3.0015  -2.8889  -2.6523  -2.2677
    -1.3803  -1.0968   1.4632   1.6875   3.1884   3.3370   3.6153   3.7584

     occupation numbers 
     1.0000   1.0000   1.0000   1.0000   1.0000   1.0000   1.0000   1.0000
     1.0000   1.0000   1.0000   1.0000   1.0000   1.0000   1.0000   1.0000
     1.0000   1.0000   1.0000   1.0000   1.0000   1.0000   1.0000   1.0000
     1.0000   1.0000   1.0000   1.0000   1.0000   1.0000   1.0000   1.0000
     0.0000   0.0000   0.0000   0.0000   0.0000   0.0000   0.0000   0.0000

          k =-0.0625-0.3248 0.0000 ( 48173 PWs)   bands (ev):

  -105.8891-104.5558 -67.4783 -67.1041 -65.5950 -64.9113 -64.4889 -64.1692
   -15.2316 -15.0082 -14.5851 -14.3337  -6.6767  -6.5452  -6.3269  -6.0263
    -5.7238  -5.5347  -5.1069  -4.6833  -4.5615  -4.1807  -4.0652  -3.9345
    -3.7132  -3.5506  -3.3627  -3.2426  -2.9294  -2.8291  -2.7056  -2.2433
    -1.4823  -1.1080   1.8752   2.0882   3.1034   3.2312   3.3928   3.5000

     occupation numbers 
     1.0000   1.0000   1.0000   1.0000   1.0000   1.0000   1.0000   1.0000
     1.0000   1.0000   1.0000   1.0000   1.0000   1.0000   1.0000   1.0000
     1.0000   1.0000   1.0000   1.0000   1.0000   1.0000   1.0000   1.0000
     1.0000   1.0000   1.0000   1.0000   1.0000   1.0000   1.0000   1.0000
     0.0000   0.0000   0.0000   0.0000   0.0000   0.0000   0.0000   0.0000

          k =-0.0625-0.2526 0.0000 ( 48148 PWs)   bands (ev):

  -105.8891-104.5558 -67.4783 -67.1041 -65.5949 -64.9113 -64.4889 -64.1692
   -15.4258 -15.2060 -14.6663 -14.4176  -6.6114  -6.4998  -6.1232  -5.7374
    -5.6110  -5.2364  -4.8523  -4.5702  -4.5447  -4.0595  -3.9169  -3.6635
    -3.5892  -3.4034  -3.2516  -3.1733  -2.8679  -2.7631  -2.6471  -2.1964
    -1.5149  -1.0968   2.3573   2.5634   2.8717   2.9698   3.1244   3.2241

     occupation numbers 
     1.0000   1.0000   1.0000   1.0000   1.0000   1.0000   1.0000   1.0000
     1.0000   1.0000   1.0000   1.0000   1.0000   1.0000   1.0000   1.0000
     1.0000   1.0000   1.0000   1.0000   1.0000   1.0000   1.0000   1.0000
     1.0000   1.0000   1.0000   1.0000   1.0000   1.0000   1.0000   1.0000
     0.0000   0.0000   0.0000   0.0000   0.0000   0.0000   0.0000   0.0000

          k =-0.0625-0.1804 0.0000 ( 48136 PWs)   bands (ev):

  -105.8891-104.5558 -67.4782 -67.1041 -65.5949 -64.9113 -64.4889 -64.1691
   -15.5876 -15.3704 -14.7441 -14.4979  -6.7080  -6.5623  -5.9772  -5.7074
    -5.2417  -4.7790  -4.5436  -4.4706  -4.3836  -4.0329  -3.7216  -3.5826
    -3.4154  -3.3004  -3.1923  -3.0650  -2.7897  -2.5780  -2.5158  -2.1135
    -1.4114  -1.0350   2.4775   2.6038   2.8720   2.9424   3.0032   3.1042

     occupation numbers 
     1.0000   1.0000   1.0000   1.0000   1.0000   1.0000   1.0000   1.0000
     1.0000   1.0000   1.0000   1.0000   1.0000   1.0000   1.0000   1.0000
     1.0000   1.0000   1.0000   1.0000   1.0000   1.0000   1.0000   1.0000
     1.0000   1.0000   1.0000   1.0000   1.0000   1.0000   1.0000   1.0000
     0.0000   0.0000   0.0000   0.0000   0.0000   0.0000   0.0000   0.0000

          k =-0.0625-0.1083 0.0000 ( 48119 PWs)   bands (ev):

  -105.8891-104.5558 -67.4782 -67.1041 -65.5948 -64.9112 -64.4889 -64.1691
   -15.7026 -15.4872 -14.8039 -14.5596  -6.8076  -6.6441  -5.8633  -5.7015
    -4.9457  -4.5152  -4.4344  -4.3179  -4.1069  -4.0009  -3.6915  -3.4703
    -3.3669  -3.2221  -3.0190  -2.8737  -2.7560  -2.4428  -2.3169  -1.9372
    -1.2399  -0.8974   2.1506   2.2733   2.7888   2.8667   3.1074   3.1683

     occupation numbers 
     1.0000   1.0000   1.0000   1.0000   1.0000   1.0000   1.0000   1.0000
     1.0000   1.0000   1.0000   1.0000   1.0000   1.0000   1.0000   1.0000
     1.0000   1.0000   1.0000   1.0000   1.0000   1.0000   1.0000   1.0000
     1.0000   1.0000   1.0000   1.0000   1.0000   1.0000   1.0000   1.0000
     0.0000   0.0000   0.0000   0.0000   0.0000   0.0000   0.0000   0.0000

     the Fermi energy is    -1.6490 ev
     (compare with:    -1.6373 eV, computed in scf)

     Writing all to output data dir ./tmp/nso.save/
 
     init_run     :      0.91s CPU      0.96s WALL (       1 calls)
     electrons    :    445.46s CPU    447.60s WALL (       1 calls)

     Called by init_run:
     wfcinit      :      0.00s CPU      0.01s WALL (       1 calls)
     wfcinit:atom :      0.46s CPU      0.48s WALL (     256 calls)
     wfcinit:wfcr :     19.35s CPU     19.45s WALL (     256 calls)
     potinit      :      0.08s CPU      0.10s WALL (       1 calls)
     hinit0       :      0.68s CPU      0.70s WALL (       1 calls)

     Called by electrons:
     c_bands      :    445.44s CPU    447.57s WALL (       1 calls)
     v_of_rho     :      0.06s CPU      0.07s WALL (       1 calls)
     v_h          :      0.00s CPU      0.00s WALL (       1 calls)
     v_xc         :      0.06s CPU      0.06s WALL (       1 calls)

     Called by c_bands:
     init_us_2    :      0.33s CPU      0.40s WALL (     256 calls)
     init_us_2:cp :      0.33s CPU      0.40s WALL (     256 calls)
     cegterg      :    409.25s CPU    410.60s WALL (     574 calls)

     Called by sum_band:

     Called by *egterg:
     cdiaghg      :     19.00s CPU     19.03s WALL (    9859 calls)
     cegterg:over :     30.83s CPU     30.89s WALL (    9603 calls)
     cegterg:upda :     23.76s CPU     23.79s WALL (    9603 calls)
     cegterg:last :     29.62s CPU     29.64s WALL (    4464 calls)
     h_psi        :    313.93s CPU    315.24s WALL (   10433 calls)
     g_psi        :      2.89s CPU      2.90s WALL (    9603 calls)

     Called by h_psi:
     h_psi:calbec :     18.20s CPU     18.28s WALL (   10433 calls)
     vloc_psi     :    270.65s CPU    271.83s WALL (   10433 calls)
     add_vuspsi   :     20.85s CPU     20.90s WALL (   10433 calls)

     General routines
     calbec       :     18.17s CPU     18.25s WALL (   10433 calls)
     fft          :      0.05s CPU      0.07s WALL (      27 calls)
     ffts         :      0.00s CPU      0.00s WALL (       4 calls)
     fftw         :    209.31s CPU    210.19s WALL (  713184 calls)
     interpolate  :      0.01s CPU      0.01s WALL (       4 calls)
     davcio       :      0.77s CPU      1.57s WALL (     512 calls)
 
     Parallel routines
 
     PWSCF        :   7m34.18s CPU   7m54.52s WALL

 
   This run was terminated on:  15:43: 3  27Jun2023            

=------------------------------------------------------------------------------=
   JOB DONE.
=------------------------------------------------------------------------------=
