
     Program PWSCF v.7.1 starts on 26Jun2023 at 23:25:25 

     This program is part of the open-source Quantum ESPRESSO suite
     for quantum simulation of materials; please cite
         "P. Giannozzi et al., J. Phys.:Condens. Matter 21 395502 (2009);
         "P. Giannozzi et al., J. Phys.:Condens. Matter 29 465901 (2017);
         "P. Giannozzi et al., J. Chem. Phys. 152 154105 (2020);
          URL http://www.quantum-espresso.org", 
     in publications or presentations arising from this work. More details at
     http://www.quantum-espresso.org/quote

     Parallel version (MPI & OpenMP), running on      20 processor cores
     Number of MPI processes:                20
     Threads/MPI process:                     1

     MPI processes distributed on     1 nodes
     233145 MiB available memory on the printing compute node when the environment starts
 
     Reading input from input/nscf.in

     Current dimensions of program PWSCF are:
     Max number of different atomic species (ntypx) = 10
     Max number of k-points (npk) =  40000
     Max angular momentum in pseudopotentials (lmaxx) =  4

     Atomic positions and unit cell read from directory:
     ./tmp/nso.save/
     Atomic positions from file used, from input discarded
 

     Fixed quantization axis for GGA:     0.000000    0.000000    1.000000
     Message from routine setup:
     using ibrav=0 with symmetry is DISCOURAGED, use correct ibrav instead
 
     R & G space division:  proc/nbgrp/npool/nimage =      20
     Subspace diagonalization in iterative solution of the eigenvalue problem:
     a serial algorithm will be used

 
     Parallelization info
     --------------------
     sticks:   dense  smooth     PW     G-vecs:    dense   smooth      PW
     Min          93      89     24                20481    19267    2770
     Max          94      90     25                20502    19300    2795
     Sum        1879    1789    499               409943   385631   55807
 
     Using Slab Decomposition
 


     bravais-lattice index     =            0
     lattice parameter (alat)  =       7.3605  a.u.
     unit-cell volume          =    2170.2486 (a.u.)^3
     number of atoms/cell      =            3
     number of atomic types    =            2
     number of electrons       =        32.00
     number of Kohn-Sham states=           40
     kinetic-energy cutoff     =     120.0000  Ry
     charge density cutoff     =     500.0000  Ry
     Exchange-correlation= PBE
                           (   1   4   3   4   0   0   0)
     Noncollinear calculation with spin-orbit


     celldm(1)=   7.360481  celldm(2)=   0.000000  celldm(3)=   0.000000
     celldm(4)=   0.000000  celldm(5)=   0.000000  celldm(6)=   0.000000

     crystal axes: (cart. coord. in units of alat)
               a(1) = (   1.000000   0.000000   0.000000 )  
               a(2) = (  -0.500000   0.866025   0.000000 )  
               a(3) = (   0.000000   0.000000   6.284350 )  

     reciprocal axes: (cart. coord. in units 2 pi/alat)
               b(1) = (  1.000000  0.577350  0.000000 )  
               b(2) = (  0.000000  1.154701  0.000000 )  
               b(3) = (  0.000000  0.000000  0.159125 )  


     PseudoPot. # 1 for Ni read from file:
     ../pseudo/Ni.upf
     MD5 check sum: 14a7e289c5fff9cacaba393040e62f02
     Pseudo is Norm-conserving + core correction, Zval = 18.0
     Generated using ONCVPSP code by D. R. Hamann
     Using radial grid of 1372 points, 10 beta functions with: 
                l(1) =   0
                l(2) =   0
                l(3) =   1
                l(4) =   1
                l(5) =   1
                l(6) =   1
                l(7) =   2
                l(8) =   2
                l(9) =   2
               l(10) =   2

     PseudoPot. # 2 for I  read from file:
     ../pseudo/I.upf
     MD5 check sum: 301f7009ca0a2b18b0adf53dca02d42f
     Pseudo is Norm-conserving + core correction, Zval =  7.0
     Generated using ONCVPSP code by D. R. Hamann
     Using radial grid of 1210 points, 10 beta functions with: 
                l(1) =   0
                l(2) =   0
                l(3) =   1
                l(4) =   1
                l(5) =   1
                l(6) =   1
                l(7) =   2
                l(8) =   2
                l(9) =   2
               l(10) =   2

     atomic species   valence    mass     pseudopotential
        Ni            18.00    58.69340     Ni( 1.00)
        I              7.00   126.90447     I ( 1.00)

     12 Sym. Ops., with inversion, found


                                    s                        frac. trans.

      isym =  1     identity                                     

 Time Reversal            0
 cryst.   s( 1) = (     1          0          0      )
                  (     0          1          0      )
                  (     0          0          1      )

 cart.    s( 1) = (  1.0000000 -0.0000000  0.0000000 )
                  (  0.0000000  1.0000000  0.0000000 )
                  (  0.0000000  0.0000000  1.0000000 )


      isym =  2     180 deg rotation - cart. axis [1,0,0]        

 Time Reversal            1
 cryst.   s( 2) = (     1          0          0      )
                  (    -1         -1          0      )
                  (     0          0         -1      )

 cart.    s( 2) = (  1.0000000  0.0000000  0.0000000 )
                  (  0.0000000 -1.0000000  0.0000000 )
                  (  0.0000000  0.0000000 -1.0000000 )


      isym =  3     120 deg rotation - cryst. axis [0,0,1]       

 Time Reversal            0
 cryst.   s( 3) = (     0          1          0      )
                  (    -1         -1          0      )
                  (     0          0          1      )

 cart.    s( 3) = ( -0.5000000 -0.8660254  0.0000000 )
                  (  0.8660254 -0.5000000  0.0000000 )
                  (  0.0000000  0.0000000  1.0000000 )


      isym =  4     120 deg rotation - cryst. axis [0,0,-1]      

 Time Reversal            0
 cryst.   s( 4) = (    -1         -1          0      )
                  (     1          0          0      )
                  (     0          0          1      )

 cart.    s( 4) = ( -0.5000000  0.8660254  0.0000000 )
                  ( -0.8660254 -0.5000000  0.0000000 )
                  (  0.0000000  0.0000000  1.0000000 )


      isym =  5     180 deg rotation - cryst. axis [0,1,0]       

 Time Reversal            1
 cryst.   s( 5) = (    -1         -1          0      )
                  (     0          1          0      )
                  (     0          0         -1      )

 cart.    s( 5) = ( -0.5000000 -0.8660254  0.0000000 )
                  ( -0.8660254  0.5000000  0.0000000 )
                  (  0.0000000  0.0000000 -1.0000000 )


      isym =  6     180 deg rotation - cryst. axis [1,1,0]       

 Time Reversal            1
 cryst.   s( 6) = (     0          1          0      )
                  (     1          0          0      )
                  (     0          0         -1      )

 cart.    s( 6) = ( -0.5000000  0.8660254  0.0000000 )
                  (  0.8660254  0.5000000  0.0000000 )
                  (  0.0000000  0.0000000 -1.0000000 )


      isym =  7     inversion                                    

 Time Reversal            0
 cryst.   s( 7) = (    -1          0          0      )
                  (     0         -1          0      )
                  (     0          0         -1      )

 cart.    s( 7) = ( -1.0000000  0.0000000  0.0000000 )
                  (  0.0000000 -1.0000000  0.0000000 )
                  (  0.0000000  0.0000000 -1.0000000 )


      isym =  8     inv. 180 deg rotation - cart. axis [1,0,0]   

 Time Reversal            1
 cryst.   s( 8) = (    -1          0          0      )
                  (     1          1          0      )
                  (     0          0          1      )

 cart.    s( 8) = ( -1.0000000 -0.0000000  0.0000000 )
                  (  0.0000000  1.0000000  0.0000000 )
                  (  0.0000000  0.0000000  1.0000000 )


      isym =  9     inv. 120 deg rotation - cryst. axis [0,0,1]  

 Time Reversal            0
 cryst.   s( 9) = (     0         -1          0      )
                  (     1          1          0      )
                  (     0          0         -1      )

 cart.    s( 9) = (  0.5000000  0.8660254  0.0000000 )
                  ( -0.8660254  0.5000000  0.0000000 )
                  (  0.0000000  0.0000000 -1.0000000 )


      isym = 10     inv. 120 deg rotation - cryst. axis [0,0,-1] 

 Time Reversal            0
 cryst.   s(10) = (     1          1          0      )
                  (    -1          0          0      )
                  (     0          0         -1      )

 cart.    s(10) = (  0.5000000 -0.8660254  0.0000000 )
                  (  0.8660254  0.5000000  0.0000000 )
                  (  0.0000000  0.0000000 -1.0000000 )


      isym = 11     inv. 180 deg rotation - cryst. axis [0,1,0]  

 Time Reversal            1
 cryst.   s(11) = (     1          1          0      )
                  (     0         -1          0      )
                  (     0          0          1      )

 cart.    s(11) = (  0.5000000  0.8660254  0.0000000 )
                  (  0.8660254 -0.5000000  0.0000000 )
                  (  0.0000000  0.0000000  1.0000000 )


      isym = 12     inv. 180 deg rotation - cryst. axis [1,1,0]  

 Time Reversal            1
 cryst.   s(12) = (     0         -1          0      )
                  (    -1          0          0      )
                  (     0          0          1      )

 cart.    s(12) = (  0.5000000 -0.8660254  0.0000000 )
                  ( -0.8660254 -0.5000000  0.0000000 )
                  (  0.0000000  0.0000000  1.0000000 )


   Cartesian axes

     site n.     atom                  positions (alat units)
         1           Ni  tau(   1) = (   0.0000000   0.0000000   3.1421749  )
         2           I   tau(   2) = (  -0.0000000   0.5773503   3.5289144  )
         3           I   tau(   3) = (   0.5000000   0.2886751   2.7554354  )

   Crystallographic axes

     site n.     atom                  positions (cryst. coord.)
         1           Ni  tau(   1) = (  0.0000000  0.0000000  0.5000000  )
         2           I   tau(   2) = (  0.3333333  0.6666667  0.5615401  )
         3           I   tau(   3) = (  0.6666667  0.3333333  0.4384599  )

     number of k points=    30  Marzari-Vanderbilt smearing, width (Ry)=  0.0015
                       cart. coord. in units 2pi/alat
        k(    1) = (   0.0000000   0.0000000   0.0000000), wk =   0.0039062
        k(    2) = (   0.0000000   0.0721688   0.0000000), wk =   0.0234375
        k(    3) = (   0.0000000   0.1443376   0.0000000), wk =   0.0234375
        k(    4) = (   0.0000000   0.2165064   0.0000000), wk =   0.0234375
        k(    5) = (   0.0000000   0.2886751   0.0000000), wk =   0.0234375
        k(    6) = (   0.0000000   0.3608439   0.0000000), wk =   0.0234375
        k(    7) = (   0.0000000   0.4330127   0.0000000), wk =   0.0234375
        k(    8) = (   0.0000000   0.5051815   0.0000000), wk =   0.0234375
        k(    9) = (   0.0000000  -0.5773503   0.0000000), wk =   0.0117188
        k(   10) = (   0.0625000   0.1082532   0.0000000), wk =   0.0234375
        k(   11) = (   0.0625000   0.1804220   0.0000000), wk =   0.0468750
        k(   12) = (   0.0625000   0.2525907   0.0000000), wk =   0.0468750
        k(   13) = (   0.0625000   0.3247595   0.0000000), wk =   0.0468750
        k(   14) = (   0.0625000   0.3969283   0.0000000), wk =   0.0468750
        k(   15) = (   0.0625000   0.4690971   0.0000000), wk =   0.0468750
        k(   16) = (   0.0625000   0.5412659   0.0000000), wk =   0.0468750
        k(   17) = (   0.1250000   0.2165064   0.0000000), wk =   0.0234375
        k(   18) = (   0.1250000   0.2886751   0.0000000), wk =   0.0468750
        k(   19) = (   0.1250000   0.3608439   0.0000000), wk =   0.0468750
        k(   20) = (   0.1250000   0.4330127   0.0000000), wk =   0.0468750
        k(   21) = (   0.1250000   0.5051815   0.0000000), wk =   0.0468750
        k(   22) = (   0.1250000   0.5773503   0.0000000), wk =   0.0234375
        k(   23) = (   0.1875000   0.3247595   0.0000000), wk =   0.0234375
        k(   24) = (   0.1875000   0.3969283   0.0000000), wk =   0.0468750
        k(   25) = (   0.1875000   0.4690971   0.0000000), wk =   0.0468750
        k(   26) = (   0.1875000   0.5412659   0.0000000), wk =   0.0468750
        k(   27) = (   0.2500000   0.4330127   0.0000000), wk =   0.0234375
        k(   28) = (   0.2500000   0.5051815   0.0000000), wk =   0.0468750
        k(   29) = (   0.2500000   0.5773503   0.0000000), wk =   0.0234375
        k(   30) = (   0.3125000   0.5412659   0.0000000), wk =   0.0234375

                       cryst. coord.
        k(    1) = (   0.0000000   0.0000000   0.0000000), wk =   0.0039062
        k(    2) = (   0.0000000   0.0625000   0.0000000), wk =   0.0234375
        k(    3) = (   0.0000000   0.1250000   0.0000000), wk =   0.0234375
        k(    4) = (   0.0000000   0.1875000   0.0000000), wk =   0.0234375
        k(    5) = (   0.0000000   0.2500000   0.0000000), wk =   0.0234375
        k(    6) = (   0.0000000   0.3125000   0.0000000), wk =   0.0234375
        k(    7) = (   0.0000000   0.3750000   0.0000000), wk =   0.0234375
        k(    8) = (   0.0000000   0.4375000   0.0000000), wk =   0.0234375
        k(    9) = (   0.0000000  -0.5000000   0.0000000), wk =   0.0117188
        k(   10) = (   0.0625000   0.0625000   0.0000000), wk =   0.0234375
        k(   11) = (   0.0625000   0.1250000   0.0000000), wk =   0.0468750
        k(   12) = (   0.0625000   0.1875000   0.0000000), wk =   0.0468750
        k(   13) = (   0.0625000   0.2500000   0.0000000), wk =   0.0468750
        k(   14) = (   0.0625000   0.3125000   0.0000000), wk =   0.0468750
        k(   15) = (   0.0625000   0.3750000   0.0000000), wk =   0.0468750
        k(   16) = (   0.0625000   0.4375000   0.0000000), wk =   0.0468750
        k(   17) = (   0.1250000   0.1250000   0.0000000), wk =   0.0234375
        k(   18) = (   0.1250000   0.1875000   0.0000000), wk =   0.0468750
        k(   19) = (   0.1250000   0.2500000   0.0000000), wk =   0.0468750
        k(   20) = (   0.1250000   0.3125000   0.0000000), wk =   0.0468750
        k(   21) = (   0.1250000   0.3750000   0.0000000), wk =   0.0468750
        k(   22) = (   0.1250000   0.4375000   0.0000000), wk =   0.0234375
        k(   23) = (   0.1875000   0.1875000   0.0000000), wk =   0.0234375
        k(   24) = (   0.1875000   0.2500000   0.0000000), wk =   0.0468750
        k(   25) = (   0.1875000   0.3125000   0.0000000), wk =   0.0468750
        k(   26) = (   0.1875000   0.3750000   0.0000000), wk =   0.0468750
        k(   27) = (   0.2500000   0.2500000   0.0000000), wk =   0.0234375
        k(   28) = (   0.2500000   0.3125000   0.0000000), wk =   0.0468750
        k(   29) = (   0.2500000   0.3750000   0.0000000), wk =   0.0234375
        k(   30) = (   0.3125000   0.3125000   0.0000000), wk =   0.0234375

     Dense  grid:   409943 G-vectors     FFT dimensions: (  54,  54, 360)

     Smooth grid:   385631 G-vectors     FFT dimensions: (  54,  54, 324)

     Dynamical RAM for                 wfc:       2.94 MB

     Dynamical RAM for     wfc (w. buffer):       2.94 MB

     Dynamical RAM for           str. fact:       0.63 MB

     Dynamical RAM for           local pot:       0.00 MB

     Dynamical RAM for          nlocal pot:       3.75 MB

     Dynamical RAM for                qrad:       9.40 MB

     Dynamical RAM for          rho,v,vnew:       8.56 MB

     Dynamical RAM for           G-vectors:       1.32 MB

     Dynamical RAM for          h,s,v(r/c):       0.29 MB

     Dynamical RAM for          <psi|beta>:       0.12 MB

     Dynamical RAM for                 psi:       5.88 MB

     Dynamical RAM for                hpsi:       5.88 MB

     Dynamical RAM for      wfcinit/wfcrot:       4.45 MB

     Estimated static dynamical RAM per process >      30.73 MB

     Estimated max dynamical RAM per process >      42.91 MB

     Estimated total dynamical RAM >     858.15 MB
     Generating pointlists ...
     new r_m :   0.2867 (alat units)  2.1099 (a.u.) for type    1
     new r_m :   0.2867 (alat units)  2.1099 (a.u.) for type    2

     The potential is recalculated from file :
     ./tmp/nso.save/charge-density

     Starting wfcs are   36 randomized atomic wfcs +    4 random wfcs

     Band Structure Calculation
     Davidson diagonalization with overlap

     Computing kpt #:     1  of    30
     total cpu time spent up to now is        3.4 secs

     Computing kpt #:     2  of    30
     total cpu time spent up to now is        5.4 secs

     Computing kpt #:     3  of    30
     total cpu time spent up to now is        7.4 secs

     Computing kpt #:     4  of    30
     total cpu time spent up to now is        9.0 secs

     Computing kpt #:     5  of    30
     total cpu time spent up to now is       10.7 secs

     Computing kpt #:     6  of    30
     total cpu time spent up to now is       12.4 secs

     Computing kpt #:     7  of    30
     total cpu time spent up to now is       13.9 secs

     Computing kpt #:     8  of    30
     total cpu time spent up to now is       15.5 secs

     Computing kpt #:     9  of    30
     total cpu time spent up to now is       17.1 secs

     Computing kpt #:    10  of    30
     total cpu time spent up to now is       19.2 secs

     Computing kpt #:    11  of    30
     total cpu time spent up to now is       21.0 secs

     Computing kpt #:    12  of    30
     total cpu time spent up to now is       22.6 secs

     Computing kpt #:    13  of    30
     total cpu time spent up to now is       24.3 secs

     Computing kpt #:    14  of    30
     total cpu time spent up to now is       25.9 secs

     Computing kpt #:    15  of    30
     total cpu time spent up to now is       27.5 secs

     Computing kpt #:    16  of    30
     total cpu time spent up to now is       29.2 secs

     Computing kpt #:    17  of    30
     total cpu time spent up to now is       30.9 secs

     Computing kpt #:    18  of    30
     total cpu time spent up to now is       32.5 secs

     Computing kpt #:    19  of    30
     total cpu time spent up to now is       34.2 secs

     Computing kpt #:    20  of    30
     total cpu time spent up to now is       35.9 secs

     Computing kpt #:    21  of    30
     total cpu time spent up to now is       38.1 secs

     Computing kpt #:    22  of    30
     total cpu time spent up to now is       40.1 secs

     Computing kpt #:    23  of    30
     total cpu time spent up to now is       41.8 secs

     Computing kpt #:    24  of    30
     total cpu time spent up to now is       43.5 secs

     Computing kpt #:    25  of    30
     total cpu time spent up to now is       45.2 secs

     Computing kpt #:    26  of    30
     total cpu time spent up to now is       46.9 secs

     Computing kpt #:    27  of    30
     total cpu time spent up to now is       48.8 secs

     Computing kpt #:    28  of    30
     total cpu time spent up to now is       50.4 secs

     Computing kpt #:    29  of    30
     total cpu time spent up to now is       52.0 secs

     Computing kpt #:    30  of    30
     total cpu time spent up to now is       53.6 secs

     ethr =  3.12E-09,  avg # of iterations = 38.0

     total cpu time spent up to now is       53.6 secs

     End of band structure calculation

          k = 0.0000 0.0000 0.0000 ( 48107 PWs)   bands (ev):

  -105.8891-104.5558 -67.4782 -67.1041 -65.5948 -64.9112 -64.4889 -64.1690
   -15.7926 -15.5784 -14.8529 -14.6100  -6.8942  -6.7206  -5.7826  -5.6741
    -4.7141  -4.4260  -4.2021  -4.1916  -4.0509  -3.9747  -3.8388  -3.2707
    -3.2627  -3.1203  -2.8737  -2.7889  -2.4571  -2.2173  -2.2038  -1.6401
    -1.0561  -0.6526   1.7714   1.9000   2.5107   2.6128   2.6839   2.7545

     occupation numbers 
     1.0000   1.0000   1.0000   1.0000   1.0000   1.0000   1.0000   1.0000
     1.0000   1.0000   1.0000   1.0000   1.0000   1.0000   1.0000   1.0000
     1.0000   1.0000   1.0000   1.0000   1.0000   1.0000   1.0000   1.0000
     1.0000   1.0000   1.0000   1.0000   1.0000   1.0000   1.0000   0.1579
     0.0000   0.0000   0.0000   0.0000   0.0000   0.0000   0.0000   0.0000

          k = 0.0000 0.0722 0.0000 ( 48113 PWs)   bands (ev):

  -105.8891-104.5558 -67.4782 -67.1041 -65.5948 -64.9112 -64.4889 -64.1690
   -15.7623 -15.5477 -14.8362 -14.5928  -6.8644  -6.6938  -5.8056  -5.6896
    -4.7859  -4.4737  -4.2911  -4.2304  -4.0456  -3.9720  -3.7739  -3.3279
    -3.3076  -3.1764  -2.9193  -2.7837  -2.6268  -2.3226  -2.2231  -1.7618
    -1.1195  -0.7590   1.9170   2.0431   2.7043   2.7589   2.7886   2.8617

     occupation numbers 
     1.0000   1.0000   1.0000   1.0000   1.0000   1.0000   1.0000   1.0000
     1.0000   1.0000   1.0000   1.0000   1.0000   1.0000   1.0000   1.0000
     1.0000   1.0000   1.0000   1.0000   1.0000   1.0000   1.0000   1.0000
     1.0000   1.0000   1.0000   1.0000   1.0000   1.0000   1.0000   1.0000
     0.0000   0.0000   0.0000   0.0000   0.0000   0.0000   0.0000   0.0000

          k = 0.0000 0.1443 0.0000 ( 48142 PWs)   bands (ev):

  -105.8891-104.5558 -67.4782 -67.1041 -65.5948 -64.9113 -64.4889 -64.1691
   -15.6734 -15.4575 -14.7884 -14.5436  -6.7810  -6.6214  -5.8952  -5.7006
    -5.0295  -4.5658  -4.5124  -4.3013  -4.1689  -4.0254  -3.6668  -3.5302
    -3.3808  -3.2374  -3.0940  -2.8809  -2.7579  -2.4914  -2.4457  -1.9408
    -1.3346  -0.8993   2.2421   2.3650   2.8196   2.8952   2.9730   3.1115

     occupation numbers 
     1.0000   1.0000   1.0000   1.0000   1.0000   1.0000   1.0000   1.0000
     1.0000   1.0000   1.0000   1.0000   1.0000   1.0000   1.0000   1.0000
     1.0000   1.0000   1.0000   1.0000   1.0000   1.0000   1.0000   1.0000
     1.0000   1.0000   1.0000   1.0000   1.0000   1.0000   1.0000   1.0000
     0.0000   0.0000   0.0000   0.0000   0.0000   0.0000   0.0000   0.0000

          k = 0.0000 0.2165 0.0000 ( 48158 PWs)   bands (ev):

  -105.8891-104.5558 -67.4782 -67.1041 -65.5949 -64.9113 -64.4889 -64.1691
   -15.5322 -15.3142 -14.7168 -14.4696  -6.6687  -6.5343  -6.0358  -5.6973
    -5.4023  -5.0172  -4.5908  -4.5197  -4.3702  -4.0794  -3.7546  -3.6086
    -3.4622  -3.3611  -3.2335  -3.0151  -2.8290  -2.7620  -2.5990  -2.0439
    -1.5333  -0.9728   2.4523   2.6446   2.6734   2.7589   3.0106   3.1029

     occupation numbers 
     1.0000   1.0000   1.0000   1.0000   1.0000   1.0000   1.0000   1.0000
     1.0000   1.0000   1.0000   1.0000   1.0000   1.0000   1.0000   1.0000
     1.0000   1.0000   1.0000   1.0000   1.0000   1.0000   1.0000   1.0000
     1.0000   1.0000   1.0000   1.0000   1.0000   1.0000   1.0000   1.0000
     0.0000   0.0000   0.0000   0.0000   0.0000   0.0000   0.0000   0.0000

          k = 0.0000 0.2887 0.0000 ( 48148 PWs)   bands (ev):

  -105.8891-104.5558 -67.4783 -67.1041 -65.5949 -64.9113 -64.4889 -64.1692
   -15.3503 -15.1291 -14.6335 -14.3837  -6.6141  -6.5100  -6.2098  -5.8440
    -5.6962  -5.4471  -4.9767  -4.5192  -4.4670  -4.1271  -3.9804  -3.7688
    -3.6464  -3.4715  -3.2836  -3.1887  -2.9323  -2.7947  -2.7167  -2.1202
    -1.5454  -1.0102   1.9736   2.1733   2.9336   3.0475   3.2300   3.3346

     occupation numbers 
     1.0000   1.0000   1.0000   1.0000   1.0000   1.0000   1.0000   1.0000
     1.0000   1.0000   1.0000   1.0000   1.0000   1.0000   1.0000   1.0000
     1.0000   1.0000   1.0000   1.0000   1.0000   1.0000   1.0000   1.0000
     1.0000   1.0000   1.0000   1.0000   1.0000   1.0000   1.0000   1.0000
     0.0000   0.0000   0.0000   0.0000   0.0000   0.0000   0.0000   0.0000

          k = 0.0000 0.3608 0.0000 ( 48214 PWs)   bands (ev):

  -105.8891-104.5558 -67.4783 -67.1041 -65.5950 -64.9114 -64.4889 -64.1693
   -15.1449 -14.9197 -14.5557 -14.3033  -6.8384  -6.6639  -6.4369  -6.1335
    -5.7241  -5.5987  -5.1215  -4.5806  -4.5084  -4.2782  -4.1381  -3.9818
    -3.7972  -3.6020  -3.4810  -3.2572  -2.9613  -2.8426  -2.7073  -2.1683
    -1.4307  -1.0257   1.5112   1.7236   3.0639   3.2058   3.4845   3.6140

     occupation numbers 
     1.0000   1.0000   1.0000   1.0000   1.0000   1.0000   1.0000   1.0000
     1.0000   1.0000   1.0000   1.0000   1.0000   1.0000   1.0000   1.0000
     1.0000   1.0000   1.0000   1.0000   1.0000   1.0000   1.0000   1.0000
     1.0000   1.0000   1.0000   1.0000   1.0000   1.0000   1.0000   1.0000
     0.0000   0.0000   0.0000   0.0000   0.0000   0.0000   0.0000   0.0000

          k = 0.0000 0.4330 0.0000 ( 48212 PWs)   bands (ev):

  -105.8890-104.5558 -67.4784 -67.1041 -65.5951 -64.9114 -64.4888 -64.1693
   -14.9407 -14.7109 -14.5034 -14.2493  -7.2220  -7.0329  -6.5687  -6.3078
    -5.7156  -5.5729  -5.0288  -4.7117  -4.5108  -4.4219  -4.1903  -4.0945
    -3.9741  -3.7372  -3.6753  -3.2724  -3.0433  -2.9395  -2.5943  -2.1921
    -1.2973  -1.0281   1.1585   1.3876   3.0588   3.2082   3.5049   3.6682

     occupation numbers 
     1.0000   1.0000   1.0000   1.0000   1.0000   1.0000   1.0000   1.0000
     1.0000   1.0000   1.0000   1.0000   1.0000   1.0000   1.0000   1.0000
     1.0000   1.0000   1.0000   1.0000   1.0000   1.0000   1.0000   1.0000
     1.0000   1.0000   1.0000   1.0000   1.0000   1.0000   1.0000   1.0000
     0.0000   0.0000   0.0000   0.0000   0.0000   0.0000   0.0000   0.0000

          k = 0.0000 0.5052 0.0000 ( 48214 PWs)   bands (ev):

  -105.8890-104.5558 -67.4784 -67.1041 -65.5951 -64.9114 -64.4888 -64.1694
   -14.7711 -14.5374 -14.4916 -14.2370  -7.5131  -7.3231  -6.6510  -6.4449
    -5.7115  -5.5325  -4.8509  -4.7635  -4.5483  -4.4615  -4.2317  -4.1443
    -4.0699  -3.9034  -3.7938  -3.2811  -3.1156  -3.0183  -2.5197  -2.2011
    -1.2084  -1.0237   0.9450   1.1913   2.9975   3.1402   3.5418   3.7184

     occupation numbers 
     1.0000   1.0000   1.0000   1.0000   1.0000   1.0000   1.0000   1.0000
     1.0000   1.0000   1.0000   1.0000   1.0000   1.0000   1.0000   1.0000
     1.0000   1.0000   1.0000   1.0000   1.0000   1.0000   1.0000   1.0000
     1.0000   1.0000   1.0000   1.0000   1.0000   1.0000   1.0000   1.0000
     0.0000   0.0000   0.0000   0.0000   0.0000   0.0000   0.0000   0.0000

          k = 0.0000-0.5774 0.0000 ( 48254 PWs)   bands (ev):

  -105.8890-104.5558 -67.4784 -67.1041 -65.5951 -64.9114 -64.4888 -64.1694
   -14.6940 -14.5031 -14.4589 -14.2479  -7.6182  -7.4280  -6.6810  -6.4973
    -5.7112  -5.5274  -4.7768  -4.6934  -4.6226  -4.4719  -4.2392  -4.1608
    -4.0701  -3.9931  -3.8502  -3.2840  -3.1449  -3.0497  -2.4958  -2.2030
    -1.1801  -1.0202   0.8749   1.1292   2.9628   3.1020   3.6889   3.8314

     occupation numbers 
     1.0000   1.0000   1.0000   1.0000   1.0000   1.0000   1.0000   1.0000
     1.0000   1.0000   1.0000   1.0000   1.0000   1.0000   1.0000   1.0000
     1.0000   1.0000   1.0000   1.0000   1.0000   1.0000   1.0000   1.0000
     1.0000   1.0000   1.0000   1.0000   1.0000   1.0000   1.0000   1.0000
     0.0000   0.0000   0.0000   0.0000   0.0000   0.0000   0.0000   0.0000

          k = 0.0625 0.1083 0.0000 ( 48119 PWs)   bands (ev):

  -105.8891-104.5558 -67.4782 -67.1041 -65.5948 -64.9112 -64.4889 -64.1691
   -15.7026 -15.4872 -14.8039 -14.5596  -6.8076  -6.6441  -5.8633  -5.7015
    -4.9457  -4.5152  -4.4344  -4.3179  -4.1069  -4.0009  -3.6915  -3.4703
    -3.3669  -3.2221  -3.0190  -2.8737  -2.7560  -2.4428  -2.3169  -1.9372
    -1.2399  -0.8974   2.1506   2.2733   2.7888   2.8667   3.1074   3.1683

     occupation numbers 
     1.0000   1.0000   1.0000   1.0000   1.0000   1.0000   1.0000   1.0000
     1.0000   1.0000   1.0000   1.0000   1.0000   1.0000   1.0000   1.0000
     1.0000   1.0000   1.0000   1.0000   1.0000   1.0000   1.0000   1.0000
     1.0000   1.0000   1.0000   1.0000   1.0000   1.0000   1.0000   1.0000
     0.0000   0.0000   0.0000   0.0000   0.0000   0.0000   0.0000   0.0000

          k = 0.0625 0.1804 0.0000 ( 48136 PWs)   bands (ev):

  -105.8891-104.5558 -67.4782 -67.1041 -65.5949 -64.9113 -64.4889 -64.1691
   -15.5876 -15.3704 -14.7441 -14.4979  -6.7080  -6.5623  -5.9772  -5.7074
    -5.2417  -4.7790  -4.5436  -4.4706  -4.3836  -4.0329  -3.7216  -3.5826
    -3.4154  -3.3004  -3.1923  -3.0650  -2.7897  -2.5780  -2.5158  -2.1135
    -1.4114  -1.0350   2.4775   2.6038   2.8720   2.9424   3.0032   3.1042

     occupation numbers 
     1.0000   1.0000   1.0000   1.0000   1.0000   1.0000   1.0000   1.0000
     1.0000   1.0000   1.0000   1.0000   1.0000   1.0000   1.0000   1.0000
     1.0000   1.0000   1.0000   1.0000   1.0000   1.0000   1.0000   1.0000
     1.0000   1.0000   1.0000   1.0000   1.0000   1.0000   1.0000   1.0000
     0.0000   0.0000   0.0000   0.0000   0.0000   0.0000   0.0000   0.0000

          k = 0.0625 0.2526 0.0000 ( 48148 PWs)   bands (ev):

  -105.8891-104.5558 -67.4783 -67.1041 -65.5949 -64.9113 -64.4889 -64.1692
   -15.4258 -15.2060 -14.6663 -14.4176  -6.6114  -6.4998  -6.1232  -5.7374
    -5.6110  -5.2364  -4.8523  -4.5702  -4.5447  -4.0595  -3.9169  -3.6635
    -3.5892  -3.4034  -3.2516  -3.1733  -2.8679  -2.7631  -2.6471  -2.1964
    -1.5149  -1.0968   2.3573   2.5634   2.8717   2.9698   3.1244   3.2241

     occupation numbers 
     1.0000   1.0000   1.0000   1.0000   1.0000   1.0000   1.0000   1.0000
     1.0000   1.0000   1.0000   1.0000   1.0000   1.0000   1.0000   1.0000
     1.0000   1.0000   1.0000   1.0000   1.0000   1.0000   1.0000   1.0000
     1.0000   1.0000   1.0000   1.0000   1.0000   1.0000   1.0000   1.0000
     0.0000   0.0000   0.0000   0.0000   0.0000   0.0000   0.0000   0.0000

          k = 0.0625 0.3248 0.0000 ( 48173 PWs)   bands (ev):

  -105.8891-104.5558 -67.4783 -67.1041 -65.5950 -64.9113 -64.4889 -64.1692
   -15.2316 -15.0082 -14.5851 -14.3337  -6.6767  -6.5452  -6.3269  -6.0263
    -5.7238  -5.5347  -5.1069  -4.6833  -4.5615  -4.1807  -4.0652  -3.9345
    -3.7132  -3.5506  -3.3627  -3.2426  -2.9294  -2.8291  -2.7056  -2.2433
    -1.4823  -1.1080   1.8752   2.0882   3.1034   3.2312   3.3928   3.5000

     occupation numbers 
     1.0000   1.0000   1.0000   1.0000   1.0000   1.0000   1.0000   1.0000
     1.0000   1.0000   1.0000   1.0000   1.0000   1.0000   1.0000   1.0000
     1.0000   1.0000   1.0000   1.0000   1.0000   1.0000   1.0000   1.0000
     1.0000   1.0000   1.0000   1.0000   1.0000   1.0000   1.0000   1.0000
     0.0000   0.0000   0.0000   0.0000   0.0000   0.0000   0.0000   0.0000

          k = 0.0625 0.3969 0.0000 ( 48195 PWs)   bands (ev):

  -105.8890-104.5558 -67.4783 -67.1041 -65.5950 -64.9114 -64.4888 -64.1693
   -15.0258 -14.7980 -14.5190 -14.2655  -7.0147  -6.8275  -6.5111  -6.2249
    -5.7293  -5.5853  -5.1049  -4.7718  -4.5708  -4.4361  -4.1635  -4.0580
    -3.8894  -3.7008  -3.5502  -3.2509  -3.0015  -2.8889  -2.6523  -2.2677
    -1.3803  -1.0968   1.4632   1.6875   3.1884   3.3370   3.6153   3.7584

     occupation numbers 
     1.0000   1.0000   1.0000   1.0000   1.0000   1.0000   1.0000   1.0000
     1.0000   1.0000   1.0000   1.0000   1.0000   1.0000   1.0000   1.0000
     1.0000   1.0000   1.0000   1.0000   1.0000   1.0000   1.0000   1.0000
     1.0000   1.0000   1.0000   1.0000   1.0000   1.0000   1.0000   1.0000
     0.0000   0.0000   0.0000   0.0000   0.0000   0.0000   0.0000   0.0000

          k = 0.0625 0.4691 0.0000 ( 48179 PWs)   bands (ev):

  -105.8890-104.5558 -67.4784 -67.1041 -65.5951 -64.9114 -64.4888 -64.1694
   -14.8366 -14.6042 -14.4868 -14.2324  -7.3634  -7.1736  -6.6087  -6.3758
    -5.7204  -5.5401  -4.9754  -4.8192  -4.6232  -4.5300  -4.3017  -4.0818
    -4.0286  -3.8613  -3.6895  -3.2436  -3.0846  -2.9678  -2.5686  -2.2831
    -1.2806  -1.0877   1.1749   1.4136   3.2063   3.3551   3.6042   3.7733

     occupation numbers 
     1.0000   1.0000   1.0000   1.0000   1.0000   1.0000   1.0000   1.0000
     1.0000   1.0000   1.0000   1.0000   1.0000   1.0000   1.0000   1.0000
     1.0000   1.0000   1.0000   1.0000   1.0000   1.0000   1.0000   1.0000
     1.0000   1.0000   1.0000   1.0000   1.0000   1.0000   1.0000   1.0000
     0.0000   0.0000   0.0000   0.0000   0.0000   0.0000   0.0000   0.0000

          k = 0.0625 0.5413 0.0000 ( 48239 PWs)   bands (ev):

  -105.8890-104.5558 -67.4784 -67.1041 -65.5951 -64.9114 -64.4888 -64.1694
   -14.7049 -14.4932 -14.4695 -14.2383  -7.5641  -7.3741  -6.6619  -6.4678
    -5.7149  -5.5229  -4.8976  -4.8037  -4.6422  -4.5166  -4.3584  -4.1824
    -4.0443  -3.9523  -3.7931  -3.2322  -3.1342  -3.0285  -2.5164  -2.2968
    -1.2145  -1.0954   1.0308   1.2815   3.1848   3.3282   3.6999   3.8830

     occupation numbers 
     1.0000   1.0000   1.0000   1.0000   1.0000   1.0000   1.0000   1.0000
     1.0000   1.0000   1.0000   1.0000   1.0000   1.0000   1.0000   1.0000
     1.0000   1.0000   1.0000   1.0000   1.0000   1.0000   1.0000   1.0000
     1.0000   1.0000   1.0000   1.0000   1.0000   1.0000   1.0000   1.0000
     0.0000   0.0000   0.0000   0.0000   0.0000   0.0000   0.0000   0.0000

          k = 0.1250 0.2165 0.0000 ( 48125 PWs)   bands (ev):

  -105.8891-104.5558 -67.4783 -67.1041 -65.5949 -64.9113 -64.4889 -64.1692
   -15.4517 -15.2324 -14.6779 -14.4295  -6.6171  -6.4995  -6.0876  -5.7469
    -5.5162  -5.0563  -4.8346  -4.6982  -4.5685  -4.0239  -3.9250  -3.6243
    -3.5527  -3.3669  -3.2384  -3.2179  -2.8355  -2.7079  -2.4793  -2.4063
    -1.3926  -1.2533   2.6754   2.8775   2.9070   3.0153   3.0566   3.1465

     occupation numbers 
     1.0000   1.0000   1.0000   1.0000   1.0000   1.0000   1.0000   1.0000
     1.0000   1.0000   1.0000   1.0000   1.0000   1.0000   1.0000   1.0000
     1.0000   1.0000   1.0000   1.0000   1.0000   1.0000   1.0000   1.0000
     1.0000   1.0000   1.0000   1.0000   1.0000   1.0000   1.0000   1.0000
     0.0000   0.0000   0.0000   0.0000   0.0000   0.0000   0.0000   0.0000

          k = 0.1250 0.2887 0.0000 ( 48141 PWs)   bands (ev):

  -105.8891-104.5558 -67.4783 -67.1041 -65.5950 -64.9113 -64.4889 -64.1692
   -15.2772 -15.0547 -14.6013 -14.3504  -6.5945  -6.4965  -6.2341  -5.9344
    -5.7059  -5.3742  -5.1182  -4.9219  -4.6360  -4.1615  -4.0145  -3.8686
    -3.6509  -3.5214  -3.2826  -3.2357  -2.8992  -2.8260  -2.6562  -2.4149
    -1.4555  -1.2783   2.3868   2.6160   3.1440   3.2453   3.2922   3.3694

     occupation numbers 
     1.0000   1.0000   1.0000   1.0000   1.0000   1.0000   1.0000   1.0000
     1.0000   1.0000   1.0000   1.0000   1.0000   1.0000   1.0000   1.0000
     1.0000   1.0000   1.0000   1.0000   1.0000   1.0000   1.0000   1.0000
     1.0000   1.0000   1.0000   1.0000   1.0000   1.0000   1.0000   1.0000
     0.0000   0.0000   0.0000   0.0000   0.0000   0.0000   0.0000   0.0000

          k = 0.1250 0.3608 0.0000 ( 48162 PWs)   bands (ev):

  -105.8891-104.5558 -67.4783 -67.1041 -65.5950 -64.9114 -64.4889 -64.1693
   -15.0813 -14.8546 -14.5301 -14.2770  -6.8039  -6.6304  -6.4473  -6.1621
    -5.7508  -5.5418  -5.1889  -5.0377  -4.6996  -4.3989  -4.1635  -3.9943
    -3.8044  -3.6914  -3.4202  -3.2324  -2.9702  -2.8734  -2.7373  -2.3920
    -1.4939  -1.2026   1.9849   2.2151   3.2740   3.4171   3.6692   3.7729

     occupation numbers 
     1.0000   1.0000   1.0000   1.0000   1.0000   1.0000   1.0000   1.0000
     1.0000   1.0000   1.0000   1.0000   1.0000   1.0000   1.0000   1.0000
     1.0000   1.0000   1.0000   1.0000   1.0000   1.0000   1.0000   1.0000
     1.0000   1.0000   1.0000   1.0000   1.0000   1.0000   1.0000   1.0000
     0.0000   0.0000   0.0000   0.0000   0.0000   0.0000   0.0000   0.0000

          k = 0.1250 0.4330 0.0000 ( 48177 PWs)   bands (ev):

  -105.8890-104.5558 -67.4784 -67.1041 -65.5951 -64.9114 -64.4888 -64.1694
   -14.8877 -14.6563 -14.4826 -14.2283  -7.1467  -6.9563  -6.5593  -6.3033
    -5.7515  -5.5410  -5.1790  -5.0519  -4.7268  -4.6056  -4.3884  -4.0207
    -3.9442  -3.8465  -3.5657  -3.2065  -3.0580  -2.9069  -2.7217  -2.3923
    -1.4535  -1.1572   1.6397   1.8757   3.4143   3.5642   3.9430   4.0786

     occupation numbers 
     1.0000   1.0000   1.0000   1.0000   1.0000   1.0000   1.0000   1.0000
     1.0000   1.0000   1.0000   1.0000   1.0000   1.0000   1.0000   1.0000
     1.0000   1.0000   1.0000   1.0000   1.0000   1.0000   1.0000   1.0000
     1.0000   1.0000   1.0000   1.0000   1.0000   1.0000   1.0000   1.0000
     0.0000   0.0000   0.0000   0.0000   0.0000   0.0000   0.0000   0.0000

          k = 0.1250 0.5052 0.0000 ( 48212 PWs)   bands (ev):

  -105.8890-104.5558 -67.4784 -67.1041 -65.5951 -64.9114 -64.4888 -64.1694
   -14.7278 -14.4923 -14.4726 -14.2184  -7.4118  -7.2226  -6.6174  -6.3987
    -5.7370  -5.5110  -5.2233  -5.0480  -4.7421  -4.6137  -4.5019  -4.1737
    -3.9721  -3.9204  -3.6815  -3.1794  -3.1184  -2.9658  -2.6558  -2.4262
    -1.3813  -1.1652   1.4193   1.6646   3.5796   3.7233   3.9856   4.1345

     occupation numbers 
     1.0000   1.0000   1.0000   1.0000   1.0000   1.0000   1.0000   1.0000
     1.0000   1.0000   1.0000   1.0000   1.0000   1.0000   1.0000   1.0000
     1.0000   1.0000   1.0000   1.0000   1.0000   1.0000   1.0000   1.0000
     1.0000   1.0000   1.0000   1.0000   1.0000   1.0000   1.0000   1.0000
     0.0000   0.0000   0.0000   0.0000   0.0000   0.0000   0.0000   0.0000

          k = 0.1250 0.5774 0.0000 ( 48240 PWs)   bands (ev):

  -105.8890-104.5558 -67.4784 -67.1041 -65.5951 -64.9114 -64.4888 -64.1694
   -14.6548 -14.4844 -14.4176 -14.2298  -7.5085  -7.3198  -6.6371  -6.4334
    -5.7195  -5.5156  -5.2457  -5.0735  -4.7116  -4.6391  -4.4347  -4.2916
    -4.0156  -3.8955  -3.7398  -3.1852  -3.1149  -3.0010  -2.6114  -2.4592
    -1.3345  -1.1908   1.3452   1.5956   3.6705   3.8044   4.0240   4.1027

     occupation numbers 
     1.0000   1.0000   1.0000   1.0000   1.0000   1.0000   1.0000   1.0000
     1.0000   1.0000   1.0000   1.0000   1.0000   1.0000   1.0000   1.0000
     1.0000   1.0000   1.0000   1.0000   1.0000   1.0000   1.0000   1.0000
     1.0000   1.0000   1.0000   1.0000   1.0000   1.0000   1.0000   1.0000
     0.0000   0.0000   0.0000   0.0000   0.0000   0.0000   0.0000   0.0000

          k = 0.1875 0.3248 0.0000 ( 48145 PWs)   bands (ev):

  -105.8891-104.5558 -67.4783 -67.1041 -65.5950 -64.9114 -64.4889 -64.1693
   -15.1005 -14.8743 -14.5341 -14.2812  -6.7053  -6.5595  -6.3994  -6.1406
    -5.7568  -5.4647  -5.2791  -5.1960  -4.7519  -4.4033  -4.1263  -3.9741
    -3.7619  -3.6971  -3.3420  -3.2287  -2.9625  -2.9158  -2.7823  -2.4252
    -1.5579  -1.2398   2.3275   2.5737   3.1782   3.3092   3.6707   3.7682

     occupation numbers 
     1.0000   1.0000   1.0000   1.0000   1.0000   1.0000   1.0000   1.0000
     1.0000   1.0000   1.0000   1.0000   1.0000   1.0000   1.0000   1.0000
     1.0000   1.0000   1.0000   1.0000   1.0000   1.0000   1.0000   1.0000
     1.0000   1.0000   1.0000   1.0000   1.0000   1.0000   1.0000   1.0000
     0.0000   0.0000   0.0000   0.0000   0.0000   0.0000   0.0000   0.0000

          k = 0.1875 0.3969 0.0000 ( 48173 PWs)   bands (ev):

  -105.8890-104.5558 -67.4784 -67.1041 -65.5951 -64.9114 -64.4888 -64.1693
   -14.9155 -14.6847 -14.4803 -14.2261  -6.9508  -6.7581  -6.5324  -6.2817
    -5.8007  -5.5180  -5.3999  -5.2546  -4.7947  -4.6289  -4.3893  -3.9906
    -3.8943  -3.8383  -3.4654  -3.1909  -3.0433  -2.9659  -2.8345  -2.4172
    -1.6047  -1.1832   2.0914   2.3360   3.2799   3.4199   4.1217   4.2266

     occupation numbers 
     1.0000   1.0000   1.0000   1.0000   1.0000   1.0000   1.0000   1.0000
     1.0000   1.0000   1.0000   1.0000   1.0000   1.0000   1.0000   1.0000
     1.0000   1.0000   1.0000   1.0000   1.0000   1.0000   1.0000   1.0000
     1.0000   1.0000   1.0000   1.0000   1.0000   1.0000   1.0000   1.0000
     0.0001   0.0000   0.0000   0.0000   0.0000   0.0000   0.0000   0.0000

          k = 0.1875 0.4691 0.0000 ( 48158 PWs)   bands (ev):

  -105.8890-104.5558 -67.4784 -67.1041 -65.5951 -64.9114 -64.4888 -64.1694
   -14.7474 -14.5117 -14.4556 -14.2014  -7.2065  -7.0167  -6.5820  -6.3506
    -5.8313  -5.5199  -5.4991  -5.3088  -4.8296  -4.7042  -4.5829  -4.1273
    -3.9511  -3.8717  -3.5865  -3.1543  -3.1129  -2.9452  -2.8567  -2.4584
    -1.5659  -1.1897   1.8418   2.0861   3.5133   3.6578   4.3901   4.5316

     occupation numbers 
     1.0000   1.0000   1.0000   1.0000   1.0000   1.0000   1.0000   1.0000
     1.0000   1.0000   1.0000   1.0000   1.0000   1.0000   1.0000   1.0000
     1.0000   1.0000   1.0000   1.0000   1.0000   1.0000   1.0000   1.0000
     1.0000   1.0000   1.0000   1.0000   1.0000   1.0000   1.0000   1.0000
     0.0000   0.0000   0.0000   0.0000   0.0000   0.0000   0.0000   0.0000

          k = 0.1875 0.5413 0.0000 ( 48174 PWs)   bands (ev):

  -105.8890-104.5558 -67.4784 -67.1041 -65.5951 -64.9114 -64.4888 -64.1694
   -14.6303 -14.4644 -14.3909 -14.2108  -7.3607  -7.1752  -6.6004  -6.3728
    -5.7997  -5.6262  -5.4861  -5.4005  -4.8801  -4.7767  -4.4932  -4.2708
    -3.9948  -3.8312  -3.6737  -3.1894  -3.0873  -2.9592  -2.8139  -2.5259
    -1.4987  -1.2392   1.6988   1.9465   3.8494   3.9921   4.2728   4.4216

     occupation numbers 
     1.0000   1.0000   1.0000   1.0000   1.0000   1.0000   1.0000   1.0000
     1.0000   1.0000   1.0000   1.0000   1.0000   1.0000   1.0000   1.0000
     1.0000   1.0000   1.0000   1.0000   1.0000   1.0000   1.0000   1.0000
     1.0000   1.0000   1.0000   1.0000   1.0000   1.0000   1.0000   1.0000
     0.0000   0.0000   0.0000   0.0000   0.0000   0.0000   0.0000   0.0000

          k = 0.2500 0.4330 0.0000 ( 48187 PWs)   bands (ev):

  -105.8890-104.5558 -67.4784 -67.1041 -65.5951 -64.9114 -64.4888 -64.1694
   -14.7549 -14.5192 -14.4492 -14.1950  -7.0875  -6.8952  -6.5790  -6.3572
    -5.9346  -5.5724  -5.5610  -5.3721  -4.8731  -4.7366  -4.6060  -4.1090
    -3.9499  -3.8497  -3.5407  -3.1458  -3.1124  -3.0271  -2.8664  -2.4643
    -1.6392  -1.1976   2.0421   2.2896   3.3678   3.5081   4.6322   4.7418

     occupation numbers 
     1.0000   1.0000   1.0000   1.0000   1.0000   1.0000   1.0000   1.0000
     1.0000   1.0000   1.0000   1.0000   1.0000   1.0000   1.0000   1.0000
     1.0000   1.0000   1.0000   1.0000   1.0000   1.0000   1.0000   1.0000
     1.0000   1.0000   1.0000   1.0000   1.0000   1.0000   1.0000   1.0000
     0.1402   0.0000   0.0000   0.0000   0.0000   0.0000   0.0000   0.0000

          k = 0.2500 0.5052 0.0000 ( 48229 PWs)   bands (ev):

  -105.8890-104.5558 -67.4784 -67.1041 -65.5951 -64.9114 -64.4888 -64.1694
   -14.6230 -14.4478 -14.3823 -14.1948  -7.1906  -7.0097  -6.5971  -6.3630
    -6.0553  -5.7529  -5.5831  -5.3949  -5.0505  -4.8831  -4.5350  -4.2302
    -3.9850  -3.7957  -3.6207  -3.1974  -3.0799  -2.9836  -2.8882  -2.5623
    -1.5912  -1.2692   1.9185   2.1627   3.6566   3.8069   4.5551   4.7090

     occupation numbers 
     1.0000   1.0000   1.0000   1.0000   1.0000   1.0000   1.0000   1.0000
     1.0000   1.0000   1.0000   1.0000   1.0000   1.0000   1.0000   1.0000
     1.0000   1.0000   1.0000   1.0000   1.0000   1.0000   1.0000   1.0000
     1.0000   1.0000   1.0000   1.0000   1.0000   1.0000   1.0000   1.0000
     0.0000   0.0000   0.0000   0.0000   0.0000   0.0000   0.0000   0.0000

          k = 0.2500 0.5774 0.0000 ( 48231 PWs)   bands (ev):

  -105.8890-104.5558 -67.4784 -67.1042 -65.5951 -64.9114 -64.4888 -64.1694
   -14.5591 -14.4637 -14.3160 -14.2119  -7.2302  -7.0553  -6.6013  -6.3488
    -6.0868  -5.8450  -5.5450  -5.4552  -5.1015  -4.9646  -4.4503  -4.3019
    -3.9931  -3.7586  -3.6643  -3.2239  -3.0588  -2.9526  -2.8774  -2.6334
    -1.5404  -1.3281   1.8625   2.1057   4.0028   4.1658   4.1730   4.3240

     occupation numbers 
     1.0000   1.0000   1.0000   1.0000   1.0000   1.0000   1.0000   1.0000
     1.0000   1.0000   1.0000   1.0000   1.0000   1.0000   1.0000   1.0000
     1.0000   1.0000   1.0000   1.0000   1.0000   1.0000   1.0000   1.0000
     1.0000   1.0000   1.0000   1.0000   1.0000   1.0000   1.0000   1.0000
     0.0000   0.0000   0.0000   0.0000   0.0000   0.0000   0.0000   0.0000

          k = 0.3125 0.5413 0.0000 ( 48231 PWs)   bands (ev):

  -105.8890-104.5558 -67.4784 -67.1042 -65.5951 -64.9114 -64.4888 -64.1694
   -14.5305 -14.4669 -14.2851 -14.2167  -7.1328  -6.9707  -6.6429  -6.3700
    -6.2281  -5.9345  -5.5156  -5.4003  -5.2721  -5.0465  -4.4495  -4.2925
    -3.9904  -3.7381  -3.6542  -3.2387  -3.0525  -2.9267  -2.8911  -2.6963
    -1.5332  -1.3802   1.9063   2.1457   3.9581   4.1223   4.3197   4.4872

     occupation numbers 
     1.0000   1.0000   1.0000   1.0000   1.0000   1.0000   1.0000   1.0000
     1.0000   1.0000   1.0000   1.0000   1.0000   1.0000   1.0000   1.0000
     1.0000   1.0000   1.0000   1.0000   1.0000   1.0000   1.0000   1.0000
     1.0000   1.0000   1.0000   1.0000   1.0000   1.0000   1.0000   1.0000
     0.0000   0.0000   0.0000   0.0000   0.0000   0.0000   0.0000   0.0000

     the Fermi energy is    -1.6490 ev
     (compare with:    -1.6373 eV, computed in scf)

     Writing all to output data dir ./tmp/nso.save/
 
     init_run     :      1.28s CPU      1.34s WALL (       1 calls)
     electrons    :     51.85s CPU     52.09s WALL (       1 calls)

     Called by init_run:
     wfcinit      :      0.00s CPU      0.01s WALL (       1 calls)
     wfcinit:atom :      0.06s CPU      0.06s WALL (      30 calls)
     wfcinit:wfcr :      2.26s CPU      2.29s WALL (      30 calls)
     potinit      :      0.07s CPU      0.10s WALL (       1 calls)
     hinit0       :      1.11s CPU      1.13s WALL (       1 calls)

     Called by electrons:
     c_bands      :     51.84s CPU     52.08s WALL (       1 calls)
     v_of_rho     :      0.06s CPU      0.07s WALL (       1 calls)
     v_h          :      0.00s CPU      0.00s WALL (       1 calls)
     v_xc         :      0.06s CPU      0.06s WALL (       1 calls)

     Called by c_bands:
     init_us_2    :      0.04s CPU      0.05s WALL (      30 calls)
     init_us_2:cp :      0.04s CPU      0.05s WALL (      30 calls)
     cegterg      :     47.93s CPU     48.12s WALL (      68 calls)

     Called by sum_band:

     Called by *egterg:
     cdiaghg      :      2.24s CPU      2.25s WALL (    1171 calls)
     cegterg:over :      3.66s CPU      3.68s WALL (    1141 calls)
     cegterg:upda :      2.90s CPU      2.91s WALL (    1141 calls)
     cegterg:last :      3.41s CPU      3.42s WALL (     523 calls)
     h_psi        :     36.68s CPU     36.85s WALL (    1239 calls)
     g_psi        :      0.34s CPU      0.34s WALL (    1141 calls)

     Called by h_psi:
     h_psi:calbec :      2.17s CPU      2.19s WALL (    1239 calls)
     vloc_psi     :     31.60s CPU     31.74s WALL (    1239 calls)
     add_vuspsi   :      2.41s CPU      2.42s WALL (    1239 calls)

     General routines
     calbec       :      2.17s CPU      2.19s WALL (    1239 calls)
     fft          :      0.17s CPU      0.20s WALL (      27 calls)
     ffts         :      0.00s CPU      0.00s WALL (       4 calls)
     fftw         :     24.54s CPU     24.64s WALL (   83792 calls)
     interpolate  :      0.01s CPU      0.01s WALL (       4 calls)
     davcio       :      0.09s CPU      0.15s WALL (      60 calls)
 
     Parallel routines
 
     PWSCF        :     54.43s CPU     55.16s WALL

 
   This run was terminated on:  23:26:20  26Jun2023            

=------------------------------------------------------------------------------=
   JOB DONE.
=------------------------------------------------------------------------------=
