
     Program PROJWFC v.7.1 starts on 27Jun2023 at 15:43: 5 

     This program is part of the open-source Quantum ESPRESSO suite
     for quantum simulation of materials; please cite
         "P. Giannozzi et al., J. Phys.:Condens. Matter 21 395502 (2009);
         "P. Giannozzi et al., J. Phys.:Condens. Matter 29 465901 (2017);
         "P. Giannozzi et al., J. Chem. Phys. 152 154105 (2020);
          URL http://www.quantum-espresso.org", 
     in publications or presentations arising from this work. More details at
     http://www.quantum-espresso.org/quote

     Parallel version (MPI & OpenMP), running on      20 processor cores
     Number of MPI processes:                20
     Threads/MPI process:                     1

     MPI processes distributed on     1 nodes
     R & G space division:  proc/nbgrp/npool/nimage =      20
     240448 MiB available memory on the printing compute node when the environment starts
 

     Reading xml data from directory:

     ./tmp/nso.save/

     IMPORTANT: XC functional enforced from input :
     Exchange-correlation= PBE
                           (   1   4   3   4   0   0   0)
     Any further DFT definition will be discarded
     Please, verify this is what you really want

 
     Parallelization info
     --------------------
     sticks:   dense  smooth     PW     G-vecs:    dense   smooth      PW
     Min          93      89     25                20481    19267    2993
     Max          94      90     26                20502    19300    3024
     Sum        1879    1789    511               409943   385631   60191
 
     Using Slab Decomposition
 

     Gaussian broadening (read from input): ngauss,degauss=   0    0.003000


     Calling projwave .... 
     Subspace diagonalization in iterative solution of the eigenvalue problem:
     one sub-group per band group will be used
     ELPA distributed-memory algorithm (size of sub-group:  4*  4 procs)

     linear algebra parallelized on  16 procs
 
  Problem Sizes 
  natomwfc =           36
  nx       =            9
  nbnd     =           40
  nkstot   =          256
  npwx     =         2460
  nkb      =          102
 

     Atomic states used for projection
     (read from pseudopotential files):

     state #   1: atom   1 (Ni ), wfc  1 (l=0 j=0.5 m_j=-0.5)
     state #   2: atom   1 (Ni ), wfc  1 (l=0 j=0.5 m_j= 0.5)
     state #   3: atom   1 (Ni ), wfc  2 (l=1 j=1.5 m_j=-1.5)
     state #   4: atom   1 (Ni ), wfc  2 (l=1 j=1.5 m_j=-0.5)
     state #   5: atom   1 (Ni ), wfc  2 (l=1 j=1.5 m_j= 0.5)
     state #   6: atom   1 (Ni ), wfc  2 (l=1 j=1.5 m_j= 1.5)
     state #   7: atom   1 (Ni ), wfc  3 (l=1 j=0.5 m_j=-0.5)
     state #   8: atom   1 (Ni ), wfc  3 (l=1 j=0.5 m_j= 0.5)
     state #   9: atom   1 (Ni ), wfc  4 (l=2 j=2.5 m_j=-2.5)
     state #  10: atom   1 (Ni ), wfc  4 (l=2 j=2.5 m_j=-1.5)
     state #  11: atom   1 (Ni ), wfc  4 (l=2 j=2.5 m_j=-0.5)
     state #  12: atom   1 (Ni ), wfc  4 (l=2 j=2.5 m_j= 0.5)
     state #  13: atom   1 (Ni ), wfc  4 (l=2 j=2.5 m_j= 1.5)
     state #  14: atom   1 (Ni ), wfc  4 (l=2 j=2.5 m_j= 2.5)
     state #  15: atom   1 (Ni ), wfc  5 (l=2 j=1.5 m_j=-1.5)
     state #  16: atom   1 (Ni ), wfc  5 (l=2 j=1.5 m_j=-0.5)
     state #  17: atom   1 (Ni ), wfc  5 (l=2 j=1.5 m_j= 0.5)
     state #  18: atom   1 (Ni ), wfc  5 (l=2 j=1.5 m_j= 1.5)
     state #  19: atom   1 (Ni ), wfc  6 (l=0 j=0.5 m_j=-0.5)
     state #  20: atom   1 (Ni ), wfc  6 (l=0 j=0.5 m_j= 0.5)
     state #  21: atom   2 (I  ), wfc  1 (l=0 j=0.5 m_j=-0.5)
     state #  22: atom   2 (I  ), wfc  1 (l=0 j=0.5 m_j= 0.5)
     state #  23: atom   2 (I  ), wfc  2 (l=1 j=1.5 m_j=-1.5)
     state #  24: atom   2 (I  ), wfc  2 (l=1 j=1.5 m_j=-0.5)
     state #  25: atom   2 (I  ), wfc  2 (l=1 j=1.5 m_j= 0.5)
     state #  26: atom   2 (I  ), wfc  2 (l=1 j=1.5 m_j= 1.5)
     state #  27: atom   2 (I  ), wfc  3 (l=1 j=0.5 m_j=-0.5)
     state #  28: atom   2 (I  ), wfc  3 (l=1 j=0.5 m_j= 0.5)
     state #  29: atom   3 (I  ), wfc  1 (l=0 j=0.5 m_j=-0.5)
     state #  30: atom   3 (I  ), wfc  1 (l=0 j=0.5 m_j= 0.5)
     state #  31: atom   3 (I  ), wfc  2 (l=1 j=1.5 m_j=-1.5)
     state #  32: atom   3 (I  ), wfc  2 (l=1 j=1.5 m_j=-0.5)
     state #  33: atom   3 (I  ), wfc  2 (l=1 j=1.5 m_j= 0.5)
     state #  34: atom   3 (I  ), wfc  2 (l=1 j=1.5 m_j= 1.5)
     state #  35: atom   3 (I  ), wfc  3 (l=1 j=0.5 m_j=-0.5)
     state #  36: atom   3 (I  ), wfc  3 (l=1 j=0.5 m_j= 0.5)

 k =   0.0000000000  0.0000000000  0.0000000000
==== e(   1) =  -105.88906 eV ==== 
     psi = 0.996*[#   2]+0.001*[#  25]+0.001*[#  33]
    |psi|^2 = 1.000
==== e(   2) =  -104.55584 eV ==== 
     psi = 0.996*[#   1]+0.001*[#  24]+0.001*[#  32]
    |psi|^2 = 1.000
==== e(   3) =   -67.47817 eV ==== 
     psi = 0.947*[#   7]+0.052*[#   4]
    |psi|^2 = 1.000
==== e(   4) =   -67.10411 eV ==== 
     psi = 0.886*[#   8]+0.114*[#   5]
    |psi|^2 = 1.000
==== e(   5) =   -65.59478 eV ==== 
     psi = 1.000*[#   6]
    |psi|^2 = 1.000
==== e(   6) =   -64.91122 eV ==== 
     psi = 0.886*[#   5]+0.114*[#   8]
    |psi|^2 = 1.000
==== e(   7) =   -64.48888 eV ==== 
     psi = 0.947*[#   4]+0.052*[#   7]
    |psi|^2 = 1.000
==== e(   8) =   -64.16902 eV ==== 
     psi = 1.000*[#   3]
    |psi|^2 = 1.000
==== e(   9) =   -15.79258 eV ==== 
     psi = 0.364*[#  22]+0.364*[#  30]+0.260*[#  20]+0.003*[#  25]+0.003*[#  33]
          +0.001*[#  28]+0.001*[#  36]+0.001*[#   2]
    |psi|^2 = 1.000
==== e(  10) =   -15.57842 eV ==== 
     psi = 0.361*[#  21]+0.361*[#  29]+0.265*[#  19]+0.003*[#  24]+0.003*[#  32]
          +0.002*[#  27]+0.002*[#  35]+0.001*[#   1]
    |psi|^2 = 1.000
==== e(  11) =   -14.85287 eV ==== 
     psi = 0.495*[#  22]+0.495*[#  30]+0.002*[#  25]+0.002*[#  33]
    |psi|^2 = 0.997
==== e(  12) =   -14.61004 eV ==== 
     psi = 0.495*[#  21]+0.495*[#  29]+0.002*[#  24]+0.002*[#  32]
    |psi|^2 = 0.997
==== e(  13) =    -6.89415 eV ==== 
     psi = 0.207*[#  25]+0.207*[#  33]+0.172*[#  28]+0.172*[#  36]+0.071*[#  20]
          +0.061*[#  12]+0.035*[#  22]+0.035*[#  30]+0.031*[#  17]+0.002*[#   2]
          +0.001*[#   9]
    |psi|^2 = 0.995
==== e(  14) =    -6.72055 eV ==== 
     psi = 0.206*[#  27]+0.206*[#  35]+0.174*[#  24]+0.174*[#  32]+0.070*[#  19]
          +0.069*[#  11]+0.036*[#  21]+0.036*[#  29]+0.015*[#  14]+0.007*[#  16]
          +0.002*[#   1]
    |psi|^2 = 0.994
==== e(  15) =    -5.78261 eV ==== 
     psi = 0.324*[#  14]+0.280*[#  16]+0.100*[#  24]+0.100*[#  32]+0.089*[#  11]
          +0.047*[#  27]+0.047*[#  35]+0.005*[#  19]+0.002*[#  21]+0.002*[#  29]
          
    |psi|^2 = 0.995
==== e(  16) =    -5.67412 eV ==== 
     psi = 0.357*[#  15]+0.275*[#  13]+0.106*[#  26]+0.106*[#  34]+0.078*[#  18]
          +0.073*[#  10]
    |psi|^2 = 0.995
==== e(  17) =    -4.71412 eV ==== 
     psi = 0.327*[#   9]+0.159*[#  28]+0.159*[#  36]+0.132*[#  17]+0.103*[#  25]
          +0.103*[#  33]+0.005*[#  12]
    |psi|^2 = 0.989
==== e(  18) =    -4.42601 eV ==== 
     psi = 0.493*[#  18]+0.188*[#  23]+0.188*[#  31]+0.071*[#  15]+0.030*[#  10]
          +0.018*[#  13]
    |psi|^2 = 0.988
==== e(  19) =    -4.20206 eV ==== 
     psi = 0.389*[#  14]+0.373*[#  16]+0.195*[#  11]+0.009*[#  24]+0.009*[#  32]
          +0.007*[#  27]+0.007*[#  35]
    |psi|^2 = 0.989
==== e(  20) =    -4.19160 eV ==== 
     psi = 0.555*[#  13]+0.270*[#  15]+0.098*[#  10]+0.029*[#  18]+0.015*[#  23]
          +0.015*[#  31]+0.004*[#  26]+0.004*[#  34]
    |psi|^2 = 0.989
==== e(  21) =    -4.05089 eV ==== 
     psi = 0.386*[#  28]+0.386*[#  36]+0.109*[#  25]+0.109*[#  33]+0.002*[#  22]
          +0.002*[#  30]
    |psi|^2 = 0.994
==== e(  22) =    -3.97474 eV ==== 
     psi = 0.452*[#  27]+0.452*[#  35]+0.042*[#  24]+0.042*[#  32]+0.001*[#  21]
          +0.001*[#  29]
    |psi|^2 = 0.992
==== e(  23) =    -3.83880 eV ==== 
     psi = 0.424*[#  17]+0.421*[#  12]+0.036*[#   9]+0.034*[#  25]+0.034*[#  33]
          +0.025*[#  20]+0.006*[#  22]+0.006*[#  30]+0.003*[#  28]+0.003*[#  36]
          
    |psi|^2 = 0.992
==== e(  24) =    -3.27073 eV ==== 
     psi = 0.411*[#  12]+0.286*[#   9]+0.275*[#  17]+0.004*[#  25]+0.004*[#  33]
          +0.001*[#  20]+0.001*[#  28]+0.001*[#  36]
    |psi|^2 = 0.985
==== e(  25) =    -3.26272 eV ==== 
     psi = 0.595*[#  10]+0.184*[#  18]+0.132*[#  15]+0.044*[#  13]+0.014*[#  23]
          +0.014*[#  31]
    |psi|^2 = 0.986
==== e(  26) =    -3.12030 eV ==== 
     psi = 0.620*[#  11]+0.283*[#  16]+0.024*[#  19]+0.013*[#  27]+0.013*[#  35]
          +0.011*[#  24]+0.011*[#  32]+0.006*[#  21]+0.006*[#  29]
    |psi|^2 = 0.987
==== e(  27) =    -2.87368 eV ==== 
     psi = 0.450*[#  24]+0.450*[#  32]+0.042*[#  27]+0.042*[#  35]+0.001*[#  21]
          +0.001*[#  29]
    |psi|^2 = 0.987
==== e(  28) =    -2.78894 eV ==== 
     psi = 0.383*[#  25]+0.383*[#  33]+0.107*[#  28]+0.107*[#  36]
    |psi|^2 = 0.984
==== e(  29) =    -2.45712 eV ==== 
     psi = 0.490*[#  26]+0.490*[#  34]
    |psi|^2 = 0.981
==== e(  30) =    -2.21726 eV ==== 
     psi = 0.488*[#  23]+0.488*[#  31]
    |psi|^2 = 0.978
==== e(  31) =    -2.20378 eV ==== 
     psi = 0.264*[#  14]+0.201*[#  27]+0.201*[#  35]+0.136*[#  24]+0.136*[#  32]
          +0.043*[#  16]+0.011*[#  11]+0.003*[#  19]
    |psi|^2 = 0.999
==== e(  32) =    -1.64009 eV ==== 
     psi = 0.387*[#  26]+0.387*[#  34]+0.132*[#  15]+0.044*[#  13]+0.042*[#  10]
          +0.007*[#  18]
    |psi|^2 = 0.998
==== e(  33) =    -1.05612 eV ==== 
     psi = 0.338*[#   9]+0.141*[#  28]+0.141*[#  36]+0.123*[#  17]+0.086*[#  12]
          +0.082*[#  25]+0.082*[#  33]+0.002*[#  20]
    |psi|^2 = 0.995
==== e(  34) =    -0.65264 eV ==== 
     psi = 0.281*[#  23]+0.281*[#  31]+0.199*[#  18]+0.148*[#  10]+0.056*[#  13]
          +0.030*[#  15]
    |psi|^2 = 0.996
==== e(  35) =     1.77136 eV ==== 
     psi = 0.397*[#  20]+0.057*[#  22]+0.057*[#  30]+0.040*[#  25]+0.040*[#  33]
          +0.013*[#  28]+0.013*[#  36]
    |psi|^2 = 0.620
==== e(  36) =     1.89996 eV ==== 
     psi = 0.371*[#  19]+0.055*[#  21]+0.055*[#  29]+0.038*[#  24]+0.038*[#  32]
          +0.013*[#  27]+0.013*[#  35]+0.001*[#  11]
    |psi|^2 = 0.586
==== e(  37) =     2.51074 eV ==== 
     psi = 0.001*[#  22]+0.001*[#  30]
    |psi|^2 = 0.004
==== e(  38) =     2.61283 eV ==== 
     psi = 0.001*[#  21]+0.001*[#  29]
    |psi|^2 = 0.005
==== e(  39) =     2.68387 eV ==== 
 
    |psi|^2 = 0.000
==== e(  40) =     2.75448 eV ==== 
 
    |psi|^2 = 0.001

 k =   0.0000000000  0.0721687836  0.0000000000
==== e(   1) =  -105.88906 eV ==== 
     psi = 0.996*[#   2]+0.001*[#  25]+0.001*[#  33]
    |psi|^2 = 1.000
==== e(   2) =  -104.55584 eV ==== 
     psi = 0.995*[#   1]+0.001*[#  24]+0.001*[#  32]
    |psi|^2 = 1.000
==== e(   3) =   -67.47818 eV ==== 
     psi = 0.947*[#   7]+0.052*[#   4]
    |psi|^2 = 1.000
==== e(   4) =   -67.10411 eV ==== 
     psi = 0.886*[#   8]+0.114*[#   5]
    |psi|^2 = 1.000
==== e(   5) =   -65.59479 eV ==== 
     psi = 1.000*[#   6]
    |psi|^2 = 1.000
==== e(   6) =   -64.91123 eV ==== 
     psi = 0.886*[#   5]+0.114*[#   8]
    |psi|^2 = 1.000
==== e(   7) =   -64.48887 eV ==== 
     psi = 0.947*[#   4]+0.052*[#   7]
    |psi|^2 = 1.000
==== e(   8) =   -64.16903 eV ==== 
     psi = 0.999*[#   3]
    |psi|^2 = 1.000
==== e(   9) =   -15.76226 eV ==== 
     psi = 0.367*[#  22]+0.367*[#  30]+0.254*[#  20]+0.003*[#  25]+0.003*[#  33]
          +0.001*[#  28]+0.001*[#  36]+0.001*[#   2]
    |psi|^2 = 1.000
==== e(  10) =   -15.54769 eV ==== 
     psi = 0.364*[#  21]+0.364*[#  29]+0.258*[#  19]+0.003*[#  24]+0.003*[#  32]
          +0.002*[#  27]+0.002*[#  35]+0.001*[#   1]
    |psi|^2 = 1.000
==== e(  11) =   -14.83617 eV ==== 
     psi = 0.494*[#  22]+0.494*[#  30]+0.002*[#  25]+0.002*[#  33]
    |psi|^2 = 0.997
==== e(  12) =   -14.59282 eV ==== 
     psi = 0.494*[#  21]+0.494*[#  29]+0.002*[#  24]+0.002*[#  32]
    |psi|^2 = 0.997
==== e(  13) =    -6.86436 eV ==== 
     psi = 0.204*[#  25]+0.204*[#  33]+0.174*[#  28]+0.174*[#  36]+0.073*[#  20]
          +0.060*[#  12]+0.035*[#  22]+0.035*[#  30]+0.030*[#  17]+0.002*[#   2]
          +0.001*[#   9]
    |psi|^2 = 0.995
==== e(  14) =    -6.69384 eV ==== 
     psi = 0.210*[#  27]+0.210*[#  35]+0.168*[#  24]+0.168*[#  32]+0.071*[#  19]
          +0.069*[#  11]+0.036*[#  21]+0.036*[#  29]+0.016*[#  14]+0.006*[#  16]
          +0.002*[#   1]
    |psi|^2 = 0.994
==== e(  15) =    -5.80556 eV ==== 
     psi = 0.303*[#  14]+0.260*[#  16]+0.101*[#  24]+0.101*[#  32]+0.081*[#  11]
          +0.044*[#  27]+0.044*[#  35]+0.014*[#  15]+0.009*[#  13]+0.005*[#  19]
          +0.005*[#  26]+0.005*[#  34]+0.004*[#  28]+0.004*[#  36]+0.003*[#  10]
          +0.003*[#  25]+0.003*[#  33]+0.002*[#  18]+0.002*[#  21]+0.002*[#  29]
          
    |psi|^2 = 0.995
==== e(  16) =    -5.68958 eV ==== 
     psi = 0.334*[#  15]+0.262*[#  13]+0.103*[#  26]+0.103*[#  34]+0.074*[#  18]
          +0.069*[#  10]+0.013*[#  16]+0.013*[#  14]+0.004*[#  11]+0.004*[#  24]
          +0.004*[#  32]+0.003*[#  27]+0.003*[#  35]+0.002*[#  25]+0.002*[#  33]
          +0.002*[#  28]+0.002*[#  36]
    |psi|^2 = 0.995
==== e(  17) =    -4.78590 eV ==== 
     psi = 0.293*[#   9]+0.149*[#  28]+0.149*[#  36]+0.109*[#  17]+0.100*[#  25]
          +0.100*[#  33]+0.017*[#  27]+0.017*[#  35]+0.012*[#  18]+0.008*[#  23]
          +0.008*[#  31]+0.007*[#  24]+0.007*[#  32]+0.006*[#  12]+0.004*[#  13]
          +0.002*[#  10]
    |psi|^2 = 0.989
==== e(  18) =    -4.47372 eV ==== 
     psi = 0.410*[#  18]+0.184*[#  23]+0.184*[#  31]+0.041*[#  15]+0.039*[#  10]
          +0.035*[#  13]+0.015*[#   9]+0.015*[#  27]+0.015*[#  35]+0.011*[#  17]
          +0.008*[#  28]+0.008*[#  36]+0.007*[#  24]+0.007*[#  32]+0.005*[#  25]
          +0.005*[#  33]
    |psi|^2 = 0.988
==== e(  19) =    -4.29110 eV ==== 
     psi = 0.334*[#  13]+0.198*[#  15]+0.088*[#  27]+0.088*[#  35]+0.074*[#  18]
          +0.054*[#  10]+0.040*[#  16]+0.028*[#  14]+0.019*[#  11]+0.014*[#  17]
          +0.009*[#  12]+0.008*[#  26]+0.008*[#  28]+0.008*[#  34]+0.008*[#  36]
          +0.003*[#  25]+0.003*[#  33]+0.002*[#  20]+0.001*[#   9]
    |psi|^2 = 0.989
==== e(  20) =    -4.23040 eV ==== 
     psi = 0.335*[#  16]+0.315*[#  14]+0.165*[#  11]+0.039*[#  13]+0.038*[#  15]
          +0.015*[#  27]+0.015*[#  35]+0.010*[#  28]+0.010*[#  36]+0.008*[#  24]
          +0.008*[#  32]+0.007*[#  26]+0.007*[#  34]+0.007*[#  18]+0.006*[#  10]
          +0.002*[#  25]+0.002*[#  33]
    |psi|^2 = 0.989
==== e(  21) =    -4.04560 eV ==== 
     psi = 0.382*[#  28]+0.382*[#  36]+0.067*[#  25]+0.067*[#  33]+0.026*[#  14]
          +0.021*[#  15]+0.017*[#  11]+0.006*[#  10]+0.003*[#  24]+0.003*[#  32]
          +0.002*[#  27]+0.002*[#  35]+0.001*[#  18]+0.001*[#  26]+0.001*[#  34]
          +0.001*[#  17]+0.001*[#  19]+0.001*[#  22]+0.001*[#  30]
    |psi|^2 = 0.992
==== e(  22) =    -3.97199 eV ==== 
     psi = 0.178*[#  17]+0.176*[#  27]+0.176*[#  35]+0.174*[#  12]+0.128*[#  13]
          +0.045*[#  15]+0.020*[#  10]+0.016*[#  20]+0.013*[#  23]+0.013*[#  31]
          +0.006*[#  24]+0.006*[#  32]+0.005*[#  22]+0.005*[#  30]+0.004*[#  25]
          +0.004*[#  28]+0.004*[#  33]+0.004*[#  36]+0.003*[#   9]+0.003*[#  26]
          +0.003*[#  34]+0.001*[#  14]+0.001*[#  16]
    |psi|^2 = 0.990
==== e(  23) =    -3.77390 eV ==== 
     psi = 0.234*[#  17]+0.219*[#  12]+0.156*[#  27]+0.156*[#  35]+0.038*[#   9]
          +0.032*[#  25]+0.032*[#  33]+0.029*[#  13]+0.024*[#  24]+0.024*[#  32]
          +0.010*[#  20]+0.008*[#  15]+0.006*[#  23]+0.006*[#  31]+0.003*[#  10]
          +0.002*[#  22]+0.002*[#  26]+0.002*[#  30]+0.002*[#  34]+0.002*[#  18]
          
    |psi|^2 = 0.991
==== e(  24) =    -3.32786 eV ==== 
     psi = 0.232*[#  10]+0.178*[#  12]+0.109*[#  17]+0.102*[#   9]+0.064*[#  25]
          +0.064*[#  33]+0.057*[#  18]+0.045*[#  11]+0.039*[#  15]+0.023*[#  23]
          +0.023*[#  31]+0.019*[#  16]+0.014*[#  13]+0.005*[#  19]+0.002*[#  21]
          +0.002*[#  29]
    |psi|^2 = 0.985
==== e(  25) =    -3.30760 eV ==== 
     psi = 0.254*[#  10]+0.202*[#  12]+0.146*[#  17]+0.140*[#   9]+0.079*[#  18]
          +0.046*[#  15]+0.031*[#  25]+0.031*[#  33]+0.019*[#  13]+0.013*[#  23]
          +0.013*[#  31]+0.002*[#  24]+0.002*[#  32]+0.001*[#  26]+0.001*[#  34]
          
    |psi|^2 = 0.985
==== e(  26) =    -3.17641 eV ==== 
     psi = 0.468*[#  11]+0.218*[#  16]+0.057*[#  10]+0.025*[#  25]+0.025*[#  33]
          +0.025*[#  19]+0.024*[#  18]+0.019*[#   9]+0.017*[#  15]+0.016*[#  12]
          +0.015*[#  17]+0.011*[#  23]+0.011*[#  31]+0.008*[#  27]+0.008*[#  35]
          +0.007*[#  24]+0.007*[#  32]+0.006*[#  21]+0.006*[#  29]+0.005*[#  13]
          +0.002*[#  14]+0.001*[#  26]+0.001*[#  28]+0.001*[#  34]+0.001*[#  36]
          
    |psi|^2 = 0.985
==== e(  27) =    -2.91932 eV ==== 
     psi = 0.421*[#  24]+0.421*[#  32]+0.023*[#  27]+0.023*[#  35]+0.017*[#  26]
          +0.017*[#  34]+0.016*[#  12]+0.011*[#  15]+0.005*[#  18]+0.005*[#  28]
          +0.005*[#  36]+0.003*[#  17]+0.003*[#  20]+0.002*[#  25]+0.002*[#  33]
          +0.002*[#  13]+0.002*[#  14]+0.002*[#  23]+0.002*[#  31]+0.001*[#  22]
          +0.001*[#  30]+0.001*[#  21]+0.001*[#  29]
    |psi|^2 = 0.987
==== e(  28) =    -2.78366 eV ==== 
     psi = 0.280*[#  25]+0.280*[#  33]+0.078*[#  11]+0.077*[#  28]+0.077*[#  36]
          +0.037*[#  10]+0.034*[#  18]+0.033*[#  16]+0.016*[#  15]+0.015*[#  27]
          +0.015*[#  35]+0.008*[#  23]+0.008*[#  31]+0.008*[#  13]+0.004*[#  14]
          +0.004*[#  26]+0.004*[#  34]+0.002*[#  24]+0.002*[#  32]
    |psi|^2 = 0.985
==== e(  29) =    -2.62676 eV ==== 
     psi = 0.328*[#  26]+0.328*[#  34]+0.098*[#  14]+0.047*[#  24]+0.047*[#  32]
          +0.042*[#  27]+0.042*[#  35]+0.009*[#  25]+0.009*[#  33]+0.008*[#  12]
          +0.004*[#  11]+0.004*[#  16]+0.002*[#  23]+0.002*[#  31]+0.002*[#  20]
          +0.002*[#  28]+0.002*[#  36]+0.001*[#  18]+0.001*[#  19]+0.001*[#  22]
          +0.001*[#  30]
    |psi|^2 = 0.982
==== e(  30) =    -2.32255 eV ==== 
     psi = 0.384*[#  23]+0.384*[#  31]+0.049*[#   9]+0.027*[#  11]+0.021*[#  26]
          +0.021*[#  34]+0.017*[#  27]+0.017*[#  35]+0.012*[#  14]+0.008*[#  28]
          +0.008*[#  36]+0.008*[#  25]+0.008*[#  33]+0.003*[#  19]+0.003*[#  17]
          +0.001*[#  21]+0.001*[#  29]+0.001*[#  12]+0.001*[#  16]
    |psi|^2 = 0.980
==== e(  31) =    -2.22313 eV ==== 
     psi = 0.168*[#  14]+0.124*[#  27]+0.124*[#  35]+0.109*[#  26]+0.109*[#  34]
          +0.103*[#  24]+0.103*[#  32]+0.054*[#  16]+0.037*[#  23]+0.037*[#  31]
          +0.006*[#  11]+0.004*[#  15]+0.004*[#   9]+0.002*[#  25]+0.002*[#  33]
          +0.002*[#  12]+0.001*[#  10]+0.001*[#  22]+0.001*[#  30]
    |psi|^2 = 0.994
==== e(  32) =    -1.76177 eV ==== 
     psi = 0.364*[#  26]+0.364*[#  34]+0.126*[#  15]+0.048*[#  13]+0.041*[#  10]
          +0.009*[#  24]+0.009*[#  32]+0.009*[#  27]+0.009*[#  35]+0.007*[#  18]
          +0.004*[#  14]+0.001*[#  16]
    |psi|^2 = 0.993
==== e(  33) =    -1.11954 eV ==== 
     psi = 0.311*[#   9]+0.128*[#  17]+0.121*[#  28]+0.121*[#  36]+0.089*[#  12]
          +0.072*[#  25]+0.072*[#  33]+0.026*[#  23]+0.026*[#  31]+0.008*[#  18]
          +0.006*[#  10]+0.002*[#  13]+0.001*[#  24]+0.001*[#  15]+0.001*[#  20]
          +0.001*[#  21]+0.001*[#  29]+0.001*[#  32]
    |psi|^2 = 0.990
==== e(  34) =    -0.75903 eV ==== 
     psi = 0.255*[#  23]+0.255*[#  31]+0.191*[#  18]+0.155*[#  10]+0.054*[#  13]
          +0.032*[#  15]+0.009*[#   9]+0.008*[#  28]+0.008*[#  36]+0.006*[#  25]
          +0.006*[#  33]+0.004*[#  17]+0.003*[#  12]
    |psi|^2 = 0.989
==== e(  35) =     1.91698 eV ==== 
     psi = 0.366*[#  20]+0.049*[#  22]+0.049*[#  30]+0.035*[#  25]+0.035*[#  33]
          +0.012*[#  28]+0.012*[#  36]+0.005*[#  26]+0.005*[#  34]+0.002*[#  27]
          +0.002*[#  35]+0.001*[#  24]+0.001*[#  32]
    |psi|^2 = 0.577
==== e(  36) =     2.04312 eV ==== 
     psi = 0.338*[#  19]+0.046*[#  21]+0.046*[#  29]+0.033*[#  24]+0.033*[#  32]
          +0.012*[#  27]+0.012*[#  35]+0.005*[#  23]+0.005*[#  31]+0.002*[#  28]
          +0.002*[#  36]+0.001*[#  25]+0.001*[#  33]
    |psi|^2 = 0.537
==== e(  37) =     2.70431 eV ==== 
 
    |psi|^2 = 0.005
==== e(  38) =     2.75888 eV ==== 
     psi = 0.001*[#  26]+0.001*[#  34]
    |psi|^2 = 0.008
==== e(  39) =     2.78864 eV ==== 
 
    |psi|^2 = 0.003
==== e(  40) =     2.86170 eV ==== 
     psi = 0.003*[#  23]+0.003*[#  31]+0.001*[#  28]+0.001*[#  36]+0.001*[#  21]
          +0.001*[#  29]
    |psi|^2 = 0.016

 k =   0.0000000000  0.1443375673  0.0000000000
==== e(   1) =  -105.88906 eV ==== 
     psi = 0.995*[#   2]+0.001*[#  25]+0.001*[#  33]
    |psi|^2 = 1.000
==== e(   2) =  -104.55584 eV ==== 
     psi = 0.995*[#   1]+0.001*[#  24]+0.001*[#  32]
    |psi|^2 = 1.000
==== e(   3) =   -67.47820 eV ==== 
     psi = 0.947*[#   7]+0.052*[#   4]
    |psi|^2 = 1.000
==== e(   4) =   -67.10412 eV ==== 
     psi = 0.886*[#   8]+0.114*[#   5]
    |psi|^2 = 1.000
==== e(   5) =   -65.59483 eV ==== 
     psi = 0.999*[#   6]
    |psi|^2 = 1.000
==== e(   6) =   -64.91125 eV ==== 
     psi = 0.886*[#   5]+0.114*[#   8]
    |psi|^2 = 1.000
==== e(   7) =   -64.48887 eV ==== 
     psi = 0.947*[#   4]+0.052*[#   7]
    |psi|^2 = 1.000
==== e(   8) =   -64.16907 eV ==== 
     psi = 0.999*[#   3]
    |psi|^2 = 1.000
==== e(   9) =   -15.67336 eV ==== 
     psi = 0.374*[#  22]+0.374*[#  30]+0.234*[#  20]+0.003*[#  25]+0.003*[#  33]
          +0.002*[#  26]+0.002*[#  34]+0.001*[#  28]+0.001*[#  36]
    |psi|^2 = 1.000
==== e(  10) =   -15.45752 eV ==== 
     psi = 0.372*[#  21]+0.372*[#  29]+0.239*[#  19]+0.003*[#  24]+0.003*[#  32]
          +0.002*[#  27]+0.002*[#  35]+0.002*[#  23]+0.002*[#  31]
    |psi|^2 = 1.000
==== e(  11) =   -14.78841 eV ==== 
     psi = 0.492*[#  22]+0.492*[#  30]+0.002*[#  25]+0.002*[#  33]+0.001*[#  26]
          +0.001*[#  34]+0.001*[#  13]
    |psi|^2 = 0.997
==== e(  12) =   -14.54356 eV ==== 
     psi = 0.492*[#  21]+0.492*[#  29]+0.002*[#  24]+0.002*[#  32]+0.001*[#  23]
          +0.001*[#  31]
    |psi|^2 = 0.997
==== e(  13) =    -6.78095 eV ==== 
     psi = 0.196*[#  25]+0.196*[#  33]+0.179*[#  28]+0.179*[#  36]+0.079*[#  20]
          +0.057*[#  12]+0.035*[#  22]+0.035*[#  30]+0.028*[#  17]+0.002*[#   2]
          +0.002*[#   9]
    |psi|^2 = 0.995
==== e(  14) =    -6.62143 eV ==== 
     psi = 0.223*[#  27]+0.223*[#  35]+0.150*[#  24]+0.150*[#  32]+0.076*[#  19]
          +0.069*[#  11]+0.036*[#  21]+0.036*[#  29]+0.022*[#  14]+0.003*[#  16]
          +0.002*[#   1]+0.001*[#  25]+0.001*[#  33]
    |psi|^2 = 0.994
==== e(  15) =    -5.89524 eV ==== 
     psi = 0.220*[#  14]+0.178*[#  16]+0.096*[#  24]+0.096*[#  32]+0.073*[#  15]
          +0.050*[#  11]+0.048*[#  13]+0.032*[#  26]+0.032*[#  34]+0.032*[#  27]
          +0.032*[#  35]+0.018*[#  28]+0.018*[#  36]+0.018*[#  10]+0.012*[#  25]
          +0.012*[#  33]+0.012*[#  18]+0.008*[#  19]+0.003*[#  21]+0.003*[#  29]
          
    |psi|^2 = 0.994
==== e(  16) =    -5.70061 eV ==== 
     psi = 0.249*[#  15]+0.216*[#  13]+0.082*[#  26]+0.082*[#  34]+0.078*[#  16]
          +0.070*[#  14]+0.059*[#  18]+0.050*[#  10]+0.026*[#  11]+0.024*[#  24]
          +0.024*[#  32]+0.013*[#  27]+0.013*[#  35]+0.002*[#  25]+0.002*[#  33]
          +0.001*[#  19]+0.001*[#  28]+0.001*[#  36]
    |psi|^2 = 0.995
==== e(  17) =    -5.02951 eV ==== 
     psi = 0.196*[#   9]+0.119*[#  28]+0.119*[#  36]+0.084*[#  25]+0.084*[#  33]
          +0.057*[#  27]+0.057*[#  35]+0.051*[#  17]+0.046*[#  18]+0.044*[#  23]
          +0.044*[#  31]+0.020*[#  13]+0.018*[#  24]+0.018*[#  32]+0.010*[#  10]
          +0.008*[#  12]+0.003*[#  20]+0.001*[#  22]+0.001*[#  26]+0.001*[#  30]
          +0.001*[#  34]+0.001*[#  21]+0.001*[#  29]
    |psi|^2 = 0.987
==== e(  18) =    -4.56580 eV ==== 
     psi = 0.177*[#  13]+0.136*[#  27]+0.136*[#  35]+0.077*[#  17]+0.064*[#  16]
          +0.056*[#  15]+0.035*[#  10]+0.035*[#  12]+0.033*[#  26]+0.033*[#  34]
          +0.028*[#  11]+0.020*[#  28]+0.020*[#  36]+0.019*[#   9]+0.019*[#  14]
          +0.017*[#  18]+0.016*[#  25]+0.016*[#  33]+0.012*[#  20]+0.010*[#  24]
          +0.010*[#  32]+0.005*[#  22]+0.005*[#  30]+0.002*[#  23]+0.002*[#  31]
          
    |psi|^2 = 0.985
==== e(  19) =    -4.51238 eV ==== 
     psi = 0.364*[#  18]+0.157*[#  23]+0.157*[#  31]+0.057*[#  15]+0.051*[#   9]
          +0.034*[#  28]+0.034*[#  36]+0.026*[#  17]+0.020*[#  10]+0.017*[#  25]
          +0.017*[#  33]+0.011*[#  24]+0.011*[#  32]+0.009*[#  16]+0.005*[#  12]
          +0.003*[#  13]+0.003*[#  11]+0.003*[#  14]+0.002*[#  26]+0.002*[#  34]
          
    |psi|^2 = 0.987
==== e(  20) =    -4.30132 eV ==== 
     psi = 0.294*[#  16]+0.212*[#  14]+0.108*[#  11]+0.103*[#  15]+0.053*[#  13]
          +0.032*[#  28]+0.032*[#  36]+0.030*[#  27]+0.030*[#  35]+0.024*[#  26]
          +0.024*[#  34]+0.016*[#  18]+0.007*[#  24]+0.007*[#  32]+0.004*[#  10]
          +0.003*[#  19]+0.002*[#  23]+0.002*[#  31]+0.002*[#  17]
    |psi|^2 = 0.988
==== e(  21) =    -4.16890 eV ==== 
     psi = 0.328*[#  28]+0.328*[#  36]+0.078*[#  11]+0.053*[#  10]+0.052*[#  14]
          +0.021*[#  15]+0.018*[#  17]+0.014*[#  24]+0.014*[#  32]+0.014*[#  23]
          +0.014*[#  31]+0.011*[#  19]+0.007*[#  18]+0.006*[#  26]+0.006*[#  34]
          +0.004*[#  21]+0.004*[#  29]+0.003*[#  27]+0.003*[#  35]+0.003*[#  13]
          +0.001*[#  12]+0.001*[#  25]+0.001*[#  33]
    |psi|^2 = 0.986
==== e(  22) =    -4.02536 eV ==== 
     psi = 0.220*[#  13]+0.205*[#  12]+0.172*[#  17]+0.102*[#  15]+0.047*[#  27]
          +0.047*[#  35]+0.028*[#  10]+0.023*[#  20]+0.022*[#  14]+0.020*[#  16]
          +0.014*[#  11]+0.013*[#  23]+0.013*[#  31]+0.010*[#  26]+0.010*[#  34]
          +0.007*[#   9]+0.007*[#  22]+0.007*[#  30]+0.006*[#  25]+0.006*[#  33]
          +0.005*[#  18]+0.003*[#  28]+0.003*[#  36]
    |psi|^2 = 0.989
==== e(  23) =    -3.66678 eV ==== 
     psi = 0.228*[#  17]+0.180*[#  27]+0.180*[#  35]+0.069*[#  13]+0.067*[#  12]
          +0.049*[#   9]+0.037*[#  25]+0.037*[#  33]+0.023*[#  15]+0.020*[#  23]
          +0.020*[#  31]+0.017*[#  24]+0.017*[#  32]+0.009*[#  10]+0.008*[#  28]
          +0.008*[#  36]+0.004*[#  26]+0.004*[#  34]+0.002*[#  14]+0.002*[#  16]
          +0.002*[#  20]
    |psi|^2 = 0.989
==== e(  24) =    -3.53018 eV ==== 
     psi = 0.228*[#  12]+0.118*[#  25]+0.118*[#  33]+0.094*[#  23]+0.094*[#  31]
          +0.071*[#  11]+0.056*[#  17]+0.043*[#   9]+0.024*[#  16]+0.021*[#  10]
          +0.020*[#  28]+0.020*[#  36]+0.017*[#  27]+0.017*[#  35]+0.015*[#  19]
          +0.005*[#  21]+0.005*[#  29]+0.003*[#  15]+0.003*[#  24]+0.003*[#  32]
          +0.002*[#  13]+0.002*[#  26]+0.002*[#  34]+0.001*[#  20]
    |psi|^2 = 0.985
==== e(  25) =    -3.38084 eV ==== 
     psi = 0.274*[#  10]+0.131*[#  25]+0.131*[#  33]+0.089*[#  12]+0.087*[#  18]
          +0.078*[#  17]+0.066*[#   9]+0.031*[#  15]+0.024*[#  13]+0.014*[#  23]
          +0.014*[#  31]+0.008*[#  24]+0.008*[#  32]+0.006*[#  26]+0.006*[#  34]
          +0.004*[#  28]+0.004*[#  36]+0.003*[#  14]+0.002*[#  27]+0.002*[#  35]
          +0.001*[#  16]
    |psi|^2 = 0.986
==== e(  26) =    -3.23736 eV ==== 
     psi = 0.239*[#  11]+0.138*[#  16]+0.124*[#  10]+0.080*[#   9]+0.078*[#  17]
          +0.049*[#  15]+0.048*[#  18]+0.037*[#  12]+0.020*[#  14]+0.016*[#  26]
          +0.016*[#  34]+0.016*[#  19]+0.014*[#  23]+0.014*[#  27]+0.014*[#  31]
          +0.014*[#  35]+0.012*[#  24]+0.012*[#  32]+0.012*[#  13]+0.006*[#  25]
          +0.006*[#  33]+0.004*[#  28]+0.004*[#  36]+0.004*[#  21]+0.004*[#  29]
          +0.001*[#  20]
    |psi|^2 = 0.984
==== e(  27) =    -3.09399 eV ==== 
     psi = 0.186*[#  24]+0.186*[#  32]+0.125*[#  12]+0.092*[#  26]+0.092*[#  34]
          +0.088*[#  14]+0.028*[#  18]+0.026*[#  10]+0.023*[#  27]+0.023*[#  35]
          +0.017*[#  25]+0.017*[#  33]+0.017*[#  11]+0.012*[#  28]+0.012*[#  36]
          +0.011*[#   9]+0.008*[#  15]+0.006*[#  20]+0.003*[#  19]+0.003*[#  22]
          +0.003*[#  30]+0.002*[#  23]+0.002*[#  31]+0.002*[#  17]+0.001*[#  21]
          +0.001*[#  29]
    |psi|^2 = 0.985
==== e(  28) =    -2.88089 eV ==== 
     psi = 0.198*[#  24]+0.198*[#  32]+0.120*[#  14]+0.071*[#  27]+0.071*[#  35]
          +0.054*[#  26]+0.054*[#  34]+0.045*[#  11]+0.023*[#  15]+0.017*[#  23]
          +0.017*[#  31]+0.017*[#  13]+0.016*[#  10]+0.014*[#  25]+0.014*[#  33]
          +0.013*[#  16]+0.013*[#  28]+0.013*[#  36]+0.006*[#   9]+0.004*[#  18]
          +0.001*[#  19]+0.001*[#  17]
    |psi|^2 = 0.983
==== e(  29) =    -2.75790 eV ==== 
     psi = 0.178*[#  11]+0.137*[#  25]+0.137*[#  33]+0.077*[#  18]+0.073*[#  16]
          +0.050*[#  24]+0.050*[#  32]+0.049*[#  10]+0.047*[#  26]+0.047*[#  34]
          +0.031*[#  28]+0.031*[#  36]+0.029*[#  14]+0.011*[#  15]+0.010*[#  23]
          +0.010*[#  31]+0.008*[#  13]+0.003*[#  27]+0.003*[#  35]+0.001*[#   9]
          
    |psi|^2 = 0.987
==== e(  30) =    -2.49135 eV ==== 
     psi = 0.159*[#  23]+0.159*[#  31]+0.119*[#  26]+0.119*[#  34]+0.098*[#   9]
          +0.050*[#  11]+0.039*[#  25]+0.039*[#  33]+0.036*[#  15]+0.028*[#  14]
          +0.026*[#  27]+0.026*[#  35]+0.018*[#  28]+0.018*[#  36]+0.011*[#  17]
          +0.011*[#  18]+0.006*[#  24]+0.006*[#  32]+0.003*[#  22]+0.003*[#  30]
          +0.002*[#  19]+0.002*[#  20]+0.001*[#  16]
    |psi|^2 = 0.984
==== e(  31) =    -2.44573 eV ==== 
     psi = 0.141*[#  26]+0.141*[#  34]+0.121*[#  23]+0.121*[#  31]+0.069*[#   9]
          +0.068*[#  16]+0.052*[#  14]+0.050*[#  24]+0.050*[#  32]+0.025*[#  27]
          +0.025*[#  35]+0.023*[#  15]+0.019*[#  10]+0.019*[#  12]+0.014*[#  25]
          +0.014*[#  33]+0.011*[#  13]+0.006*[#  28]+0.006*[#  36]+0.003*[#  22]
          +0.003*[#  30]+0.002*[#  11]
    |psi|^2 = 0.984
==== e(  32) =    -1.94081 eV ==== 
     psi = 0.280*[#  26]+0.280*[#  34]+0.082*[#  15]+0.052*[#  13]+0.052*[#  24]
          +0.052*[#  32]+0.051*[#  27]+0.051*[#  35]+0.031*[#  14]+0.025*[#  10]
          +0.018*[#  16]+0.006*[#  11]+0.005*[#  18]+0.001*[#  23]+0.001*[#  31]
          
    |psi|^2 = 0.994
==== e(  33) =    -1.33465 eV ==== 
     psi = 0.222*[#   9]+0.116*[#  17]+0.082*[#  12]+0.082*[#  23]+0.082*[#  31]
          +0.068*[#  18]+0.062*[#  10]+0.062*[#  28]+0.062*[#  36]+0.040*[#  25]
          +0.040*[#  33]+0.016*[#  13]+0.010*[#  15]+0.010*[#  24]+0.010*[#  32]
          +0.005*[#  21]+0.005*[#  29]+0.001*[#  11]
    |psi|^2 = 0.980
==== e(  34) =    -0.89933 eV ==== 
     psi = 0.183*[#  23]+0.183*[#  31]+0.141*[#  10]+0.132*[#  18]+0.064*[#   9]
          +0.043*[#  28]+0.043*[#  36]+0.041*[#  17]+0.038*[#  13]+0.031*[#  25]
          +0.031*[#  33]+0.029*[#  15]+0.028*[#  12]
    |psi|^2 = 0.990
==== e(  35) =     2.24213 eV ==== 
     psi = 0.309*[#  20]+0.034*[#  22]+0.034*[#  30]+0.027*[#  25]+0.027*[#  33]
          +0.011*[#  26]+0.011*[#  34]+0.009*[#  28]+0.009*[#  36]+0.005*[#  27]
          +0.005*[#  35]+0.003*[#  24]+0.003*[#  32]
    |psi|^2 = 0.490
==== e(  36) =     2.36497 eV ==== 
     psi = 0.269*[#  19]+0.030*[#  21]+0.030*[#  29]+0.024*[#  24]+0.024*[#  32]
          +0.010*[#  23]+0.010*[#  31]+0.009*[#  27]+0.009*[#  35]+0.004*[#  28]
          +0.004*[#  36]+0.003*[#  25]+0.003*[#  33]
    |psi|^2 = 0.431
==== e(  37) =     2.81962 eV ==== 
     psi = 0.003*[#  20]
    |psi|^2 = 0.007
==== e(  38) =     2.89522 eV ==== 
     psi = 0.007*[#  20]+0.002*[#  19]
    |psi|^2 = 0.019
==== e(  39) =     2.97302 eV ==== 
     psi = 0.081*[#  20]+0.009*[#  22]+0.009*[#  30]+0.008*[#  26]+0.008*[#  34]
          +0.006*[#  25]+0.006*[#  33]+0.003*[#  27]+0.003*[#  35]+0.003*[#  24]
          +0.003*[#  32]+0.002*[#  28]+0.002*[#  36]+0.001*[#  12]
    |psi|^2 = 0.148
==== e(  40) =     3.11150 eV ==== 
     psi = 0.097*[#  19]+0.010*[#  21]+0.010*[#  23]+0.010*[#  29]+0.010*[#  31]
          +0.007*[#  24]+0.007*[#  32]+0.005*[#  28]+0.005*[#  36]+0.003*[#  25]
          +0.003*[#  27]+0.003*[#  33]+0.003*[#  35]+0.002*[#  11]+0.002*[#  20]
          +0.001*[#  16]
    |psi|^2 = 0.184

 k =   0.0000000000  0.2165063509  0.0000000000
==== e(   1) =  -105.88906 eV ==== 
     psi = 0.995*[#   2]+0.001*[#  25]+0.001*[#  33]
    |psi|^2 = 1.000
==== e(   2) =  -104.55584 eV ==== 
     psi = 0.995*[#   1]+0.001*[#  24]+0.001*[#  32]
    |psi|^2 = 1.000
==== e(   3) =   -67.47823 eV ==== 
     psi = 0.947*[#   7]+0.052*[#   4]
    |psi|^2 = 1.000
==== e(   4) =   -67.10412 eV ==== 
     psi = 0.886*[#   8]+0.114*[#   5]
    |psi|^2 = 1.000
==== e(   5) =   -65.59488 eV ==== 
     psi = 0.999*[#   6]
    |psi|^2 = 1.000
==== e(   6) =   -64.91128 eV ==== 
     psi = 0.886*[#   5]+0.114*[#   8]
    |psi|^2 = 1.000
==== e(   7) =   -64.48887 eV ==== 
     psi = 0.947*[#   4]+0.052*[#   7]
    |psi|^2 = 1.000
==== e(   8) =   -64.16913 eV ==== 
     psi = 0.999*[#   3]
    |psi|^2 = 1.000
==== e(   9) =   -15.53223 eV ==== 
     psi = 0.387*[#  22]+0.387*[#  30]+0.203*[#  20]+0.003*[#  25]+0.003*[#  33]
          +0.003*[#  26]+0.003*[#  34]+0.002*[#  27]+0.002*[#  35]+0.001*[#  28]
          +0.001*[#  36]+0.001*[#  24]+0.001*[#  32]
    |psi|^2 = 0.999
==== e(  10) =   -15.31422 eV ==== 
     psi = 0.385*[#  21]+0.385*[#  29]+0.207*[#  19]+0.004*[#  24]+0.004*[#  32]
          +0.003*[#  23]+0.003*[#  31]+0.002*[#  27]+0.002*[#  35]+0.002*[#  28]
          +0.002*[#  36]+0.001*[#  25]+0.001*[#  33]
    |psi|^2 = 0.999
==== e(  11) =   -14.71678 eV ==== 
     psi = 0.489*[#  22]+0.489*[#  30]+0.002*[#  26]+0.002*[#  34]+0.002*[#  13]
          +0.002*[#  16]+0.001*[#  14]+0.001*[#  25]+0.001*[#  27]+0.001*[#  33]
          +0.001*[#  35]+0.001*[#  11]
    |psi|^2 = 0.998
==== e(  12) =   -14.46964 eV ==== 
     psi = 0.489*[#  21]+0.489*[#  29]+0.002*[#  23]+0.002*[#  31]+0.002*[#  10]
          +0.001*[#  17]+0.001*[#  24]+0.001*[#  28]+0.001*[#  32]+0.001*[#  36]
          +0.001*[#   9]
    |psi|^2 = 0.998
==== e(  13) =    -6.66868 eV ==== 
     psi = 0.185*[#  28]+0.185*[#  36]+0.176*[#  25]+0.176*[#  33]+0.094*[#  20]
          +0.048*[#  12]+0.037*[#  22]+0.037*[#  30]+0.022*[#  17]+0.005*[#  27]
          +0.005*[#  35]+0.005*[#  26]+0.005*[#  34]+0.003*[#  24]+0.003*[#  32]
          +0.002*[#   2]+0.002*[#   9]+0.001*[#  14]
    |psi|^2 = 0.995
==== e(  14) =    -6.53429 eV ==== 
     psi = 0.246*[#  27]+0.246*[#  35]+0.108*[#  24]+0.108*[#  32]+0.082*[#  19]
          +0.066*[#  11]+0.035*[#  14]+0.034*[#  21]+0.034*[#  29]+0.007*[#  25]
          +0.007*[#  33]+0.004*[#  23]+0.004*[#  31]+0.003*[#  15]+0.003*[#  26]
          +0.003*[#  34]+0.002*[#   1]+0.002*[#  28]+0.002*[#  36]
    |psi|^2 = 0.994
==== e(  15) =    -6.03576 eV ==== 
     psi = 0.151*[#  14]+0.111*[#  24]+0.111*[#  32]+0.109*[#  16]+0.091*[#  15]
          +0.056*[#  13]+0.055*[#  26]+0.055*[#  34]+0.041*[#  28]+0.041*[#  36]
          +0.028*[#  10]+0.023*[#  11]+0.019*[#  27]+0.019*[#  35]+0.018*[#  19]
          +0.017*[#  25]+0.017*[#  33]+0.011*[#  18]+0.007*[#  21]+0.007*[#  29]
          +0.002*[#  23]+0.002*[#  31]
    |psi|^2 = 0.992
==== e(  16) =    -5.69730 eV ==== 
     psi = 0.208*[#  13]+0.190*[#  15]+0.114*[#  16]+0.089*[#  14]+0.066*[#  26]
          +0.066*[#  34]+0.053*[#  18]+0.039*[#  11]+0.038*[#  24]+0.038*[#  32]
          +0.033*[#  10]+0.024*[#  27]+0.024*[#  35]+0.003*[#  19]+0.002*[#  25]
          +0.002*[#  33]+0.001*[#  21]+0.001*[#  29]
    |psi|^2 = 0.995
==== e(  17) =    -5.40233 eV ==== 
     psi = 0.119*[#   9]+0.109*[#  28]+0.109*[#  36]+0.089*[#  27]+0.089*[#  35]
          +0.071*[#  23]+0.071*[#  31]+0.068*[#  25]+0.068*[#  33]+0.045*[#  18]
          +0.024*[#  13]+0.016*[#  24]+0.016*[#  32]+0.013*[#  17]+0.012*[#  26]
          +0.012*[#  34]+0.010*[#  10]+0.010*[#  12]+0.010*[#  20]+0.008*[#  11]
          +0.004*[#  15]+0.004*[#  22]+0.004*[#  30]+0.002*[#  19]+0.002*[#  21]
          +0.002*[#  29]+0.001*[#  16]
    |psi|^2 = 0.984
==== e(  18) =    -5.01717 eV ==== 
     psi = 0.098*[#  27]+0.098*[#  35]+0.092*[#  16]+0.073*[#  26]+0.073*[#  34]
          +0.062*[#  18]+0.061*[#  13]+0.058*[#  17]+0.052*[#  12]+0.040*[#  24]
          +0.040*[#  32]+0.036*[#  25]+0.036*[#  33]+0.031*[#  11]+0.020*[#  20]
          +0.018*[#  15]+0.015*[#  23]+0.015*[#  31]+0.013*[#   9]+0.012*[#  28]
          +0.012*[#  36]+0.007*[#  22]+0.007*[#  30]+0.006*[#  10]+0.002*[#  19]
          +0.002*[#  14]
    |psi|^2 = 0.982
==== e(  19) =    -4.59085 eV ==== 
     psi = 0.229*[#  28]+0.229*[#  36]+0.074*[#  16]+0.064*[#  17]+0.057*[#  23]
          +0.057*[#  31]+0.048*[#  15]+0.026*[#  25]+0.026*[#  33]+0.024*[#  10]
          +0.024*[#  19]+0.022*[#  11]+0.021*[#  24]+0.021*[#  32]+0.011*[#   9]
          +0.009*[#  21]+0.009*[#  29]+0.006*[#  13]+0.006*[#  26]+0.006*[#  34]
          +0.005*[#  27]+0.005*[#  35]+0.003*[#  18]+0.002*[#  12]
    |psi|^2 = 0.984
==== e(  20) =    -4.51974 eV ==== 
     psi = 0.232*[#  18]+0.144*[#  23]+0.144*[#  31]+0.065*[#  28]+0.065*[#  36]
          +0.065*[#   9]+0.054*[#  10]+0.054*[#  17]+0.049*[#  15]+0.035*[#  25]
          +0.035*[#  33]+0.015*[#  13]+0.008*[#  24]+0.008*[#  32]+0.005*[#  27]
          +0.005*[#  35]+0.003*[#  11]
    |psi|^2 = 0.988
==== e(  21) =    -4.37025 eV ==== 
     psi = 0.185*[#  14]+0.168*[#  16]+0.155*[#  11]+0.083*[#  15]+0.059*[#  27]
          +0.059*[#  35]+0.052*[#  13]+0.047*[#  26]+0.047*[#  34]+0.033*[#  10]
          +0.027*[#  24]+0.027*[#  32]+0.022*[#  18]+0.008*[#  28]+0.008*[#  36]
          +0.002*[#  23]+0.002*[#  31]
    |psi|^2 = 0.987
==== e(  22) =    -4.07942 eV ==== 
     psi = 0.263*[#  13]+0.175*[#  12]+0.125*[#  17]+0.111*[#  15]+0.056*[#  16]
          +0.038*[#  14]+0.033*[#  10]+0.031*[#  11]+0.023*[#  20]+0.019*[#  18]
          +0.016*[#  27]+0.016*[#  35]+0.011*[#  26]+0.011*[#  34]+0.011*[#  23]
          +0.011*[#  31]+0.008*[#   9]+0.007*[#  22]+0.007*[#  30]+0.006*[#  25]
          +0.006*[#  33]
    |psi|^2 = 0.988
==== e(  23) =    -3.75456 eV ==== 
     psi = 0.191*[#  17]+0.126*[#  23]+0.126*[#  31]+0.094*[#  28]+0.094*[#  36]
          +0.068*[#  12]+0.049*[#   9]+0.032*[#  25]+0.032*[#  33]+0.026*[#  10]
          +0.025*[#  18]+0.020*[#  27]+0.020*[#  35]+0.018*[#  11]+0.011*[#  26]
          +0.011*[#  34]+0.008*[#  19]+0.007*[#  24]+0.007*[#  32]+0.006*[#  14]
          +0.003*[#  16]+0.002*[#  21]+0.002*[#  29]+0.002*[#  15]
    |psi|^2 = 0.983
==== e(  24) =    -3.60862 eV ==== 
     psi = 0.162*[#  12]+0.155*[#  27]+0.155*[#  35]+0.118*[#  17]+0.072*[#  13]
          +0.068*[#  25]+0.068*[#  33]+0.056*[#  15]+0.025*[#  23]+0.025*[#  31]
          +0.023*[#  10]+0.011*[#  14]+0.010*[#  24]+0.010*[#  32]+0.005*[#  18]
          +0.004*[#   9]+0.004*[#  11]+0.002*[#  26]+0.002*[#  28]+0.002*[#  34]
          +0.002*[#  36]+0.002*[#  20]+0.001*[#  19]
    |psi|^2 = 0.989
==== e(  25) =    -3.46217 eV ==== 
     psi = 0.108*[#  14]+0.108*[#  12]+0.107*[#  10]+0.106*[#  25]+0.106*[#  33]
          +0.079*[#  15]+0.049*[#  27]+0.049*[#  35]+0.048*[#  18]+0.042*[#  26]
          +0.042*[#  34]+0.025*[#  24]+0.025*[#  32]+0.015*[#  13]+0.014*[#  23]
          +0.014*[#  31]+0.012*[#  11]+0.011*[#  16]+0.007*[#  28]+0.007*[#  36]
          +0.007*[#   9]
    |psi|^2 = 0.984
==== e(  26) =    -3.36113 eV ==== 
     psi = 0.129*[#  14]+0.098*[#  17]+0.081*[#   9]+0.070*[#  16]+0.068*[#  24]
          +0.068*[#  32]+0.066*[#  25]+0.066*[#  33]+0.053*[#  26]+0.053*[#  34]
          +0.037*[#  28]+0.037*[#  36]+0.030*[#  27]+0.030*[#  35]+0.029*[#  11]
          +0.017*[#  10]+0.013*[#  23]+0.013*[#  31]+0.007*[#  15]+0.005*[#  18]
          +0.005*[#  20]+0.005*[#  19]+0.002*[#  13]+0.002*[#  22]+0.002*[#  30]
          
    |psi|^2 = 0.987
==== e(  27) =    -3.23349 eV ==== 
     psi = 0.208*[#  10]+0.154*[#  12]+0.123*[#  11]+0.101*[#  18]+0.092*[#   9]
          +0.057*[#  14]+0.047*[#  16]+0.033*[#  17]+0.029*[#  13]+0.023*[#  24]
          +0.023*[#  32]+0.014*[#  19]+0.014*[#  15]+0.010*[#  26]+0.010*[#  34]
          +0.007*[#  27]+0.007*[#  35]+0.005*[#  23]+0.005*[#  31]+0.004*[#  25]
          +0.004*[#  33]+0.003*[#  21]+0.003*[#  29]+0.002*[#  28]+0.002*[#  36]
          
    |psi|^2 = 0.983
==== e(  28) =    -3.01506 eV ==== 
     psi = 0.236*[#  24]+0.236*[#  32]+0.094*[#  14]+0.071*[#  11]+0.035*[#  27]
          +0.035*[#  35]+0.032*[#  26]+0.032*[#  34]+0.025*[#  23]+0.025*[#  31]
          +0.025*[#  28]+0.025*[#  36]+0.023*[#  15]+0.022*[#  13]+0.018*[#  16]
          +0.014*[#  12]+0.011*[#  25]+0.011*[#  33]+0.008*[#   9]+0.001*[#  20]
          +0.001*[#  22]+0.001*[#  30]
    |psi|^2 = 0.983
==== e(  29) =    -2.82895 eV ==== 
     psi = 0.222*[#  26]+0.222*[#  34]+0.195*[#  11]+0.104*[#  10]+0.042*[#  13]
          +0.029*[#  15]+0.029*[#  18]+0.021*[#  28]+0.021*[#  36]+0.020*[#  12]
          +0.011*[#  25]+0.011*[#  33]+0.007*[#  24]+0.008*[#  27]+0.007*[#  32]
          +0.008*[#  35]+0.005*[#  17]+0.005*[#  23]+0.005*[#  31]+0.004*[#  16]
          +0.004*[#  22]+0.004*[#  30]+0.001*[#  20]
    |psi|^2 = 0.986
==== e(  30) =    -2.76200 eV ==== 
     psi = 0.155*[#  16]+0.126*[#  25]+0.126*[#  33]+0.099*[#  18]+0.091*[#  11]
          +0.075*[#  15]+0.054*[#  26]+0.054*[#  34]+0.048*[#  24]+0.048*[#  32]
          +0.046*[#  14]+0.020*[#  12]+0.010*[#  23]+0.010*[#  31]+0.009*[#   9]
          +0.004*[#  22]+0.004*[#  30]+0.003*[#  28]+0.003*[#  36]+0.002*[#  27]
          +0.002*[#  35]
    |psi|^2 = 0.991
==== e(  31) =    -2.59902 eV ==== 
     psi = 0.260*[#   9]+0.182*[#  23]+0.182*[#  31]+0.059*[#  25]+0.059*[#  33]
          +0.042*[#  11]+0.033*[#  18]+0.023*[#  28]+0.023*[#  36]+0.022*[#  12]
          +0.022*[#  16]+0.017*[#  17]+0.015*[#  24]+0.015*[#  32]+0.009*[#  15]
          +0.008*[#  13]+0.007*[#  10]+0.001*[#  19]
    |psi|^2 = 0.982
==== e(  32) =    -2.04391 eV ==== 
     psi = 0.231*[#  26]+0.231*[#  34]+0.076*[#  27]+0.076*[#  35]+0.071*[#  24]
          +0.071*[#  32]+0.068*[#  13]+0.047*[#  15]+0.037*[#  16]+0.034*[#  14]
          +0.019*[#  11]+0.005*[#  17]+0.004*[#  23]+0.004*[#  31]+0.004*[#   9]
          +0.004*[#  10]+0.003*[#  25]+0.003*[#  33]+0.001*[#  18]
    |psi|^2 = 0.995
==== e(  33) =    -1.53334 eV ==== 
     psi = 0.166*[#   9]+0.131*[#  10]+0.111*[#  18]+0.105*[#  17]+0.077*[#  12]
          +0.069*[#  23]+0.069*[#  31]+0.042*[#  24]+0.042*[#  32]+0.025*[#  28]
          +0.025*[#  36]+0.020*[#  13]+0.020*[#  15]+0.019*[#  25]+0.019*[#  33]
          +0.009*[#  21]+0.009*[#  29]+0.005*[#  16]+0.004*[#  27]+0.004*[#  35]
          +0.003*[#  26]+0.003*[#  34]+0.002*[#  11]
    |psi|^2 = 0.982
==== e(  34) =    -0.97283 eV ==== 
     psi = 0.148*[#  23]+0.148*[#  31]+0.134*[#  10]+0.082*[#   9]+0.081*[#  18]
          +0.077*[#  17]+0.059*[#  28]+0.059*[#  36]+0.053*[#  12]+0.047*[#  25]
          +0.047*[#  33]+0.030*[#  15]+0.025*[#  13]
    |psi|^2 = 0.991
==== e(  35) =     2.45233 eV ==== 
     psi = 0.361*[#  20]+0.030*[#  26]+0.030*[#  34]+0.028*[#  22]+0.028*[#  30]
          +0.025*[#  25]+0.025*[#  33]+0.013*[#  27]+0.013*[#  35]+0.009*[#  28]
          +0.009*[#  36]+0.009*[#  24]+0.009*[#  32]
    |psi|^2 = 0.595
==== e(  36) =     2.64464 eV ==== 
     psi = 0.293*[#  19]+0.027*[#  23]+0.027*[#  31]+0.023*[#  21]+0.023*[#  29]
          +0.019*[#  24]+0.019*[#  32]+0.012*[#  28]+0.012*[#  36]+0.009*[#  27]
          +0.009*[#  35]+0.008*[#  25]+0.008*[#  33]+0.004*[#  20]
    |psi|^2 = 0.498
==== e(  37) =     2.67336 eV ==== 
     psi = 0.048*[#  19]+0.024*[#  20]+0.005*[#  23]+0.005*[#  31]+0.004*[#  24]
          +0.004*[#  25]+0.004*[#  32]+0.004*[#  33]+0.004*[#  21]+0.004*[#  29]
          +0.003*[#  22]+0.003*[#  28]+0.003*[#  30]+0.003*[#  36]
    |psi|^2 = 0.119
==== e(  38) =     2.75885 eV ==== 
     psi = 0.019*[#  19]+0.002*[#  21]+0.002*[#  29]+0.002*[#  24]+0.002*[#  32]
          
    |psi|^2 = 0.032
==== e(  39) =     3.01061 eV ==== 
     psi = 0.004*[#  19]+0.002*[#  20]+0.001*[#  14]
    |psi|^2 = 0.014
==== e(  40) =     3.10293 eV ==== 
     psi = 0.004*[#  19]+0.002*[#   9]+0.002*[#  18]+0.001*[#  24]+0.001*[#  32]
          
    |psi|^2 = 0.014

 k =   0.0000000000  0.2886751346  0.0000000000
==== e(   1) =  -105.88905 eV ==== 
     psi = 0.995*[#   2]
    |psi|^2 = 1.000
==== e(   2) =  -104.55583 eV ==== 
     psi = 0.995*[#   1]
    |psi|^2 = 1.000
==== e(   3) =   -67.47828 eV ==== 
     psi = 0.947*[#   7]+0.052*[#   4]
    |psi|^2 = 1.000
==== e(   4) =   -67.10413 eV ==== 
     psi = 0.885*[#   8]+0.114*[#   5]
    |psi|^2 = 1.000
==== e(   5) =   -65.59494 eV ==== 
     psi = 0.999*[#   6]
    |psi|^2 = 1.000
==== e(   6) =   -64.91132 eV ==== 
     psi = 0.885*[#   5]+0.114*[#   8]
    |psi|^2 = 1.000
==== e(   7) =   -64.48886 eV ==== 
     psi = 0.947*[#   4]+0.052*[#   7]
    |psi|^2 = 1.000
==== e(   8) =   -64.16920 eV ==== 
     psi = 0.999*[#   3]
    |psi|^2 = 1.000
==== e(   9) =   -15.35025 eV ==== 
     psi = 0.405*[#  22]+0.405*[#  30]+0.162*[#  20]+0.004*[#  26]+0.004*[#  34]
          +0.003*[#  25]+0.003*[#  33]+0.002*[#  27]+0.002*[#  35]+0.001*[#  24]
          +0.002*[#  28]+0.001*[#  32]+0.002*[#  36]
    |psi|^2 = 0.999
==== e(  10) =   -15.12912 eV ==== 
     psi = 0.402*[#  21]+0.402*[#  29]+0.166*[#  19]+0.004*[#  23]+0.004*[#  31]
          +0.004*[#  24]+0.004*[#  32]+0.002*[#  28]+0.002*[#  36]+0.002*[#  27]
          +0.002*[#  35]+0.001*[#  25]+0.001*[#  33]
    |psi|^2 = 0.999
==== e(  11) =   -14.63352 eV ==== 
     psi = 0.487*[#  22]+0.487*[#  30]+0.003*[#  13]+0.002*[#  16]+0.002*[#  26]
          +0.002*[#  34]+0.002*[#  14]+0.002*[#  11]+0.002*[#  15]+0.001*[#  27]
          +0.001*[#  35]
    |psi|^2 = 0.998
==== e(  12) =   -14.38366 eV ==== 
     psi = 0.488*[#  21]+0.488*[#  29]+0.003*[#  10]+0.002*[#  23]+0.002*[#  31]
          +0.002*[#  17]+0.002*[#   9]+0.001*[#  12]+0.001*[#  18]+0.001*[#  28]
          +0.001*[#  36]
    |psi|^2 = 0.998
==== e(  13) =    -6.61411 eV ==== 
     psi = 0.154*[#  28]+0.154*[#  36]+0.125*[#  20]+0.121*[#  25]+0.121*[#  33]
          +0.046*[#  27]+0.046*[#  35]+0.041*[#  22]+0.041*[#  30]+0.027*[#  26]
          +0.027*[#  34]+0.023*[#  12]+0.015*[#  14]+0.011*[#  24]+0.011*[#  32]
          +0.009*[#  17]+0.006*[#  15]+0.003*[#  13]+0.002*[#   2]+0.002*[#  10]
          +0.001*[#   9]+0.001*[#  18]
    |psi|^2 = 0.994
==== e(  14) =    -6.51002 eV ==== 
     psi = 0.240*[#  27]+0.240*[#  35]+0.085*[#  19]+0.046*[#  11]+0.044*[#  14]
          +0.043*[#  24]+0.043*[#  32]+0.030*[#  21]+0.030*[#  29]+0.026*[#  25]
          +0.026*[#  33]+0.025*[#  28]+0.025*[#  36]+0.015*[#  23]+0.015*[#  31]
          +0.014*[#  26]+0.014*[#  34]+0.010*[#  15]+0.004*[#   9]+0.004*[#  18]
          +0.003*[#  17]+0.003*[#  16]+0.001*[#  12]+0.001*[#   1]+0.001*[#  20]
          +0.001*[#  22]+0.001*[#  30]
    |psi|^2 = 0.992
==== e(  15) =    -6.20983 eV ==== 
     psi = 0.120*[#  24]+0.120*[#  32]+0.085*[#  14]+0.082*[#  28]+0.082*[#  36]
          +0.061*[#  26]+0.061*[#  34]+0.059*[#  15]+0.051*[#  16]+0.049*[#  19]
          +0.045*[#  13]+0.030*[#  10]+0.018*[#  25]+0.018*[#  33]+0.017*[#  23]
          +0.017*[#  31]+0.016*[#  21]+0.016*[#  29]+0.013*[#  27]+0.013*[#  35]
          +0.009*[#  11]+0.003*[#   9]+0.002*[#  12]+0.002*[#  18]
    |psi|^2 = 0.991
==== e(  16) =    -5.84395 eV ==== 
     psi = 0.126*[#  28]+0.126*[#  36]+0.115*[#  27]+0.115*[#  35]+0.071*[#  23]
          +0.071*[#  31]+0.058*[#   9]+0.058*[#  13]+0.040*[#  24]+0.040*[#  32]
          +0.030*[#  25]+0.030*[#  33]+0.018*[#  26]+0.018*[#  34]+0.016*[#  12]
          +0.014*[#  20]+0.011*[#  11]+0.008*[#  18]+0.004*[#  22]+0.004*[#  30]
          +0.003*[#  14]+0.002*[#  10]+0.001*[#  21]+0.001*[#  29]
    |psi|^2 = 0.983
==== e(  17) =    -5.69621 eV ==== 
     psi = 0.192*[#  13]+0.173*[#  15]+0.093*[#  16]+0.085*[#  18]+0.066*[#  26]
          +0.066*[#  34]+0.063*[#  14]+0.056*[#  11]+0.027*[#  10]+0.027*[#  27]
          +0.027*[#  35]+0.025*[#  24]+0.025*[#  32]+0.015*[#  25]+0.015*[#  33]
          +0.008*[#  23]+0.008*[#  31]+0.006*[#  19]+0.003*[#   9]+0.003*[#  28]
          +0.003*[#  36]+0.002*[#  12]+0.002*[#  21]+0.002*[#  29]
    |psi|^2 = 0.994
==== e(  18) =    -5.44709 eV ==== 
     psi = 0.145*[#  16]+0.097*[#  25]+0.097*[#  33]+0.078*[#  26]+0.078*[#  34]
          +0.057*[#  12]+0.046*[#  17]+0.045*[#  24]+0.045*[#  32]+0.043*[#  27]
          +0.043*[#  35]+0.039*[#  18]+0.037*[#  11]+0.031*[#  23]+0.031*[#  31]
          +0.015*[#  13]+0.014*[#  14]+0.011*[#   9]+0.009*[#  20]+0.005*[#  28]
          +0.005*[#  36]+0.003*[#  15]+0.003*[#  22]+0.003*[#  30]+0.002*[#  19]
          
    |psi|^2 = 0.984
==== e(  19) =    -4.97668 eV ==== 
     psi = 0.153*[#  28]+0.153*[#  36]+0.074*[#  24]+0.074*[#  32]+0.067*[#  23]
          +0.067*[#  31]+0.065*[#  16]+0.049*[#  17]+0.047*[#  25]+0.047*[#  33]
          +0.037*[#  10]+0.035*[#  11]+0.032*[#  15]+0.013*[#   9]+0.013*[#  19]
          +0.012*[#  27]+0.012*[#  35]+0.010*[#  18]+0.006*[#  26]+0.006*[#  34]
          +0.004*[#  21]+0.004*[#  29]+0.004*[#  14]+0.002*[#  12]
    |psi|^2 = 0.986
==== e(  20) =    -4.51923 eV ==== 
     psi = 0.162*[#  18]+0.133*[#  23]+0.133*[#  31]+0.105*[#  17]+0.073*[#  28]
          +0.073*[#  36]+0.060*[#  10]+0.053*[#   9]+0.050*[#  25]+0.050*[#  33]
          +0.018*[#  13]+0.018*[#  15]+0.014*[#  27]+0.014*[#  35]+0.006*[#  11]
          +0.006*[#  16]+0.005*[#  14]+0.004*[#  24]+0.004*[#  32]+0.001*[#  26]
          +0.001*[#  34]
    |psi|^2 = 0.986
==== e(  21) =    -4.46701 eV ==== 
     psi = 0.137*[#  15]+0.126*[#  16]+0.116*[#  11]+0.099*[#  14]+0.092*[#  27]
          +0.092*[#  35]+0.057*[#  26]+0.057*[#  34]+0.045*[#  24]+0.045*[#  32]
          +0.029*[#  18]+0.026*[#  13]+0.021*[#  10]+0.013*[#  23]+0.013*[#  31]
          +0.004*[#  28]+0.004*[#  36]+0.002*[#   9]+0.002*[#  25]+0.002*[#  33]
          +0.001*[#  17]
    |psi|^2 = 0.985
==== e(  22) =    -4.12713 eV ==== 
     psi = 0.287*[#  13]+0.148*[#  12]+0.118*[#  17]+0.092*[#  15]+0.079*[#  16]
          +0.038*[#  11]+0.030*[#  10]+0.027*[#  18]+0.020*[#  20]+0.019*[#  26]
          +0.019*[#  34]+0.016*[#  14]+0.015*[#  23]+0.015*[#  31]+0.010*[#   9]
          +0.008*[#  27]+0.008*[#  35]+0.007*[#  25]+0.007*[#  33]+0.007*[#  22]
          +0.007*[#  30]+0.003*[#  28]+0.003*[#  36]+0.002*[#  24]+0.002*[#  32]
          
    |psi|^2 = 0.987
==== e(  23) =    -3.98039 eV ==== 
     psi = 0.113*[#  28]+0.113*[#  36]+0.105*[#  14]+0.104*[#  23]+0.104*[#  31]
          +0.071*[#  17]+0.067*[#  12]+0.038*[#  26]+0.038*[#  34]+0.036*[#  10]
          +0.029*[#  27]+0.029*[#  35]+0.023*[#  25]+0.023*[#  33]+0.022*[#  18]
          +0.016*[#  24]+0.016*[#  32]+0.013*[#  11]+0.010*[#   9]+0.005*[#  19]
          +0.003*[#  16]+0.002*[#  20]+0.001*[#  21]+0.001*[#  29]
    |psi|^2 = 0.984
==== e(  24) =    -3.76876 eV ==== 
     psi = 0.228*[#  14]+0.075*[#  25]+0.075*[#  33]+0.061*[#  27]+0.061*[#  35]
          +0.060*[#  18]+0.057*[#  17]+0.052*[#  10]+0.042*[#  23]+0.042*[#  31]
          +0.040*[#  12]+0.035*[#  15]+0.031*[#  26]+0.031*[#  34]+0.023*[#  24]
          +0.023*[#  32]+0.013*[#  16]+0.009*[#   9]+0.007*[#  28]+0.007*[#  36]
          +0.004*[#  11]+0.003*[#  13]+0.002*[#  20]+0.002*[#  22]+0.002*[#  30]
          
    |psi|^2 = 0.985
==== e(  25) =    -3.64635 eV ==== 
     psi = 0.208*[#  12]+0.165*[#  15]+0.110*[#  17]+0.093*[#  27]+0.093*[#  35]
          +0.054*[#  13]+0.037*[#  23]+0.037*[#  31]+0.036*[#  25]+0.036*[#  33]
          +0.030*[#  26]+0.030*[#  34]+0.015*[#  24]+0.015*[#  32]+0.007*[#  18]
          +0.007*[#  10]+0.004*[#   9]+0.003*[#  11]+0.002*[#  14]
    |psi|^2 = 0.990
==== e(  26) =    -3.47145 eV ==== 
     psi = 0.143*[#   9]+0.141*[#  17]+0.083*[#  16]+0.079*[#  24]+0.079*[#  32]
          +0.069*[#  14]+0.051*[#  26]+0.051*[#  34]+0.045*[#  25]+0.045*[#  33]
          +0.033*[#  28]+0.033*[#  36]+0.030*[#  23]+0.030*[#  31]+0.019*[#  12]
          +0.012*[#  27]+0.012*[#  35]+0.007*[#  13]+0.006*[#  19]+0.005*[#  11]
          +0.005*[#  15]+0.004*[#  20]+0.002*[#  10]+0.001*[#  22]+0.001*[#  30]
          
    |psi|^2 = 0.986
==== e(  27) =    -3.28360 eV ==== 
     psi = 0.132*[#  10]+0.113*[#  18]+0.101*[#  12]+0.101*[#  14]+0.080*[#   9]
          +0.079*[#  11]+0.067*[#  15]+0.052*[#  26]+0.052*[#  34]+0.048*[#  13]
          +0.018*[#  24]+0.018*[#  32]+0.016*[#  17]+0.014*[#  25]+0.014*[#  33]
          +0.012*[#  19]+0.010*[#  23]+0.010*[#  31]+0.009*[#  27]+0.009*[#  35]
          +0.008*[#  16]+0.007*[#  28]+0.007*[#  36]+0.002*[#  21]+0.002*[#  29]
          
    |psi|^2 = 0.981
==== e(  28) =    -3.18868 eV ==== 
     psi = 0.144*[#  24]+0.144*[#  32]+0.131*[#  10]+0.099*[#  26]+0.099*[#  34]
          +0.070*[#  11]+0.066*[#  16]+0.036*[#  14]+0.027*[#  15]+0.025*[#  12]
          +0.025*[#  17]+0.023*[#  27]+0.023*[#  35]+0.013*[#  23]+0.013*[#  31]
          +0.010*[#  18]+0.007*[#  28]+0.007*[#  36]+0.006*[#  25]+0.006*[#  33]
          +0.001*[#  19]
    |psi|^2 = 0.982
==== e(  29) =    -2.93232 eV ==== 
     psi = 0.239*[#  11]+0.108*[#  10]+0.104*[#  13]+0.069*[#  12]+0.061*[#  28]
          +0.061*[#  36]+0.057*[#  18]+0.054*[#  26]+0.054*[#  34]+0.032*[#  25]
          +0.032*[#  33]+0.017*[#  23]+0.017*[#  31]+0.016*[#  16]+0.016*[#  14]
          +0.010*[#  15]+0.009*[#  24]+0.009*[#  32]+0.006*[#   9]+0.005*[#  27]
          +0.005*[#  35]+0.004*[#  22]+0.004*[#  30]
    |psi|^2 = 0.992
==== e(  30) =    -2.79474 eV ==== 
     psi = 0.156*[#  16]+0.137*[#  25]+0.137*[#  33]+0.126*[#  11]+0.101*[#  18]
          +0.058*[#  24]+0.058*[#  32]+0.054*[#  14]+0.042*[#  12]+0.038*[#  15]
          +0.031*[#   9]+0.008*[#  23]+0.008*[#  31]+0.006*[#  28]+0.006*[#  36]
          +0.005*[#  26]+0.005*[#  34]+0.003*[#  22]+0.003*[#  27]+0.003*[#  30]
          +0.003*[#  35]+0.002*[#  19]+0.001*[#  17]
    |psi|^2 = 0.992
==== e(  31) =    -2.71667 eV ==== 
     psi = 0.316*[#   9]+0.117*[#  23]+0.117*[#  31]+0.080*[#  25]+0.080*[#  33]
          +0.077*[#  18]+0.053*[#  11]+0.025*[#  17]+0.019*[#  15]+0.016*[#  16]
          +0.016*[#  12]+0.015*[#  28]+0.015*[#  36]+0.009*[#  24]+0.009*[#  32]
          +0.005*[#  13]+0.003*[#  14]+0.002*[#  26]+0.002*[#  27]+0.002*[#  34]
          +0.002*[#  35]
    |psi|^2 = 0.984
==== e(  32) =    -2.12022 eV ==== 
     psi = 0.210*[#  26]+0.210*[#  34]+0.091*[#  27]+0.091*[#  35]+0.089*[#  13]
          +0.061*[#  24]+0.061*[#  32]+0.048*[#  16]+0.038*[#  11]+0.032*[#  15]
          +0.024*[#  14]+0.011*[#  17]+0.007*[#   9]+0.005*[#  23]+0.005*[#  31]
          +0.003*[#  12]+0.003*[#  25]+0.003*[#  33]+0.001*[#  20]
    |psi|^2 = 0.996
==== e(  33) =    -1.54542 eV ==== 
     psi = 0.167*[#  10]+0.139*[#   9]+0.118*[#  18]+0.091*[#  17]+0.090*[#  24]
          +0.090*[#  32]+0.070*[#  12]+0.034*[#  23]+0.034*[#  31]+0.027*[#  15]
          +0.016*[#  13]+0.011*[#  25]+0.011*[#  33]+0.011*[#  28]+0.011*[#  36]
          +0.010*[#  16]+0.009*[#  27]+0.009*[#  35]+0.009*[#  21]+0.009*[#  29]
          +0.008*[#  26]+0.008*[#  34]+0.003*[#  11]
    |psi|^2 = 0.985
==== e(  34) =    -1.01024 eV ==== 
     psi = 0.138*[#  10]+0.135*[#  23]+0.135*[#  31]+0.105*[#  17]+0.075*[#   9]
          +0.072*[#  12]+0.059*[#  28]+0.059*[#  36]+0.054*[#  25]+0.054*[#  33]
          +0.051*[#  18]+0.033*[#  15]+0.017*[#  13]
    |psi|^2 = 0.992
==== e(  35) =     1.97356 eV ==== 
     psi = 0.303*[#  20]+0.034*[#  26]+0.034*[#  34]+0.016*[#  22]+0.016*[#  30]
          +0.015*[#  25]+0.015*[#  33]+0.014*[#  27]+0.014*[#  35]+0.010*[#  24]
          +0.010*[#  32]+0.006*[#  28]+0.006*[#  36]+0.001*[#  14]+0.001*[#  15]
          +0.001*[#   2]
    |psi|^2 = 0.501
==== e(  36) =     2.17326 eV ==== 
     psi = 0.273*[#  19]+0.035*[#  23]+0.035*[#  31]+0.014*[#  28]+0.014*[#  36]
          +0.014*[#  21]+0.014*[#  29]+0.014*[#  24]+0.014*[#  32]+0.011*[#  25]
          +0.011*[#  33]+0.005*[#  27]+0.005*[#  35]+0.002*[#   9]+0.002*[#  18]
          
    |psi|^2 = 0.467
==== e(  37) =     2.93362 eV ==== 
     psi = 0.115*[#  20]+0.008*[#  25]+0.008*[#  33]+0.008*[#  22]+0.008*[#  30]
          +0.004*[#  26]+0.004*[#  34]+0.003*[#  28]+0.003*[#  36]+0.002*[#  27]
          +0.002*[#  35]+0.001*[#  24]+0.001*[#  32]
    |psi|^2 = 0.170
==== e(  38) =     3.04752 eV ==== 
     psi = 0.125*[#  19]+0.009*[#  24]+0.009*[#  32]+0.008*[#  21]+0.008*[#  29]
          +0.005*[#  23]+0.005*[#  31]+0.004*[#  27]+0.004*[#  35]+0.002*[#  28]
          +0.002*[#  36]+0.001*[#  25]+0.001*[#  33]+0.001*[#   9]+0.001*[#  10]
          
    |psi|^2 = 0.189
==== e(  39) =     3.23004 eV ==== 
     psi = 0.004*[#  20]+0.002*[#  19]+0.001*[#  14]+0.001*[#  15]
    |psi|^2 = 0.016
==== e(  40) =     3.33460 eV ==== 
     psi = 0.003*[#   9]+0.002*[#  18]+0.002*[#  19]
    |psi|^2 = 0.012

 k =   0.0000000000  0.3608439182  0.0000000000
==== e(   1) =  -105.88905 eV ==== 
     psi = 0.995*[#   2]
    |psi|^2 = 1.000
==== e(   2) =  -104.55583 eV ==== 
     psi = 0.995*[#   1]
    |psi|^2 = 1.000
==== e(   3) =   -67.47832 eV ==== 
     psi = 0.947*[#   7]+0.052*[#   4]
    |psi|^2 = 1.000
==== e(   4) =   -67.10414 eV ==== 
     psi = 0.885*[#   8]+0.114*[#   5]
    |psi|^2 = 1.000
==== e(   5) =   -65.59501 eV ==== 
     psi = 0.999*[#   6]
    |psi|^2 = 1.000
==== e(   6) =   -64.91136 eV ==== 
     psi = 0.885*[#   5]+0.114*[#   8]
    |psi|^2 = 1.000
==== e(   7) =   -64.48885 eV ==== 
     psi = 0.947*[#   4]+0.052*[#   7]
    |psi|^2 = 1.000
==== e(   8) =   -64.16927 eV ==== 
     psi = 0.999*[#   3]
    |psi|^2 = 1.000
==== e(   9) =   -15.14489 eV ==== 
     psi = 0.427*[#  22]+0.427*[#  30]+0.117*[#  20]+0.005*[#  26]+0.005*[#  34]
          +0.003*[#  25]+0.003*[#  33]+0.002*[#  27]+0.002*[#  35]+0.002*[#  24]
          +0.001*[#  28]+0.002*[#  32]+0.001*[#  36]
    |psi|^2 = 0.999
==== e(  10) =   -14.91970 eV ==== 
     psi = 0.425*[#  21]+0.425*[#  29]+0.120*[#  19]+0.005*[#  23]+0.005*[#  31]
          +0.003*[#  24]+0.003*[#  32]+0.003*[#  28]+0.003*[#  36]+0.002*[#  27]
          +0.002*[#  35]+0.002*[#  25]+0.002*[#  33]
    |psi|^2 = 0.999
==== e(  11) =   -14.55574 eV ==== 
     psi = 0.486*[#  22]+0.486*[#  30]+0.005*[#  13]+0.003*[#  16]+0.003*[#  14]
          +0.002*[#  11]+0.002*[#  15]+0.002*[#  20]+0.002*[#  26]+0.002*[#  34]
          +0.001*[#  18]
    |psi|^2 = 0.999
==== e(  12) =   -14.30334 eV ==== 
     psi = 0.488*[#  21]+0.488*[#  29]+0.004*[#  10]+0.003*[#  17]+0.002*[#   9]
          +0.002*[#  12]+0.002*[#  18]+0.002*[#  19]+0.002*[#  23]+0.002*[#  31]
          
    |psi|^2 = 0.998
==== e(  13) =    -6.83844 eV ==== 
     psi = 0.151*[#  20]+0.140*[#  27]+0.140*[#  35]+0.091*[#  26]+0.091*[#  34]
          +0.048*[#  25]+0.048*[#  33]+0.047*[#  28]+0.047*[#  36]+0.032*[#  22]
          +0.032*[#  30]+0.032*[#  14]+0.026*[#  24]+0.026*[#  32]+0.014*[#  15]
          +0.011*[#  13]+0.004*[#  10]+0.002*[#   2]+0.002*[#  16]+0.002*[#  18]
          +0.001*[#  19]
    |psi|^2 = 0.991
==== e(  14) =    -6.66390 eV ==== 
     psi = 0.148*[#  19]+0.126*[#  28]+0.126*[#  36]+0.084*[#  27]+0.084*[#  35]
          +0.080*[#  23]+0.080*[#  31]+0.036*[#  24]+0.036*[#  32]+0.033*[#  21]
          +0.033*[#  29]+0.027*[#  25]+0.027*[#  33]+0.016*[#   9]+0.009*[#  18]
          +0.006*[#  10]+0.005*[#  11]+0.005*[#  17]+0.005*[#  26]+0.005*[#  34]
          +0.004*[#  20]+0.003*[#  14]+0.002*[#  13]+0.002*[#  22]+0.002*[#  30]
          +0.002*[#   1]+0.002*[#  15]
    |psi|^2 = 0.990
==== e(  15) =    -6.43694 eV ==== 
     psi = 0.117*[#  27]+0.117*[#  35]+0.078*[#  26]+0.078*[#  34]+0.067*[#  28]
          +0.067*[#  36]+0.060*[#  14]+0.055*[#  25]+0.055*[#  33]+0.036*[#  13]
          +0.035*[#  24]+0.035*[#  32]+0.029*[#  15]+0.028*[#  16]+0.027*[#  11]
          +0.016*[#  10]+0.016*[#  23]+0.016*[#  31]+0.014*[#  19]+0.013*[#  20]
          +0.007*[#  22]+0.007*[#  30]+0.004*[#  12]+0.002*[#  21]+0.002*[#  29]
          +0.002*[#   9]+0.002*[#  18]
    |psi|^2 = 0.989
==== e(  16) =    -6.13346 eV ==== 
     psi = 0.189*[#  28]+0.189*[#  36]+0.077*[#  27]+0.077*[#  35]+0.077*[#  23]
          +0.077*[#  31]+0.074*[#  24]+0.074*[#  32]+0.026*[#   9]+0.017*[#  12]
          +0.013*[#  11]+0.012*[#  26]+0.012*[#  34]+0.011*[#  13]+0.010*[#  19]
          +0.009*[#  21]+0.009*[#  29]+0.008*[#  25]+0.008*[#  33]+0.007*[#  18]
          +0.005*[#  10]+0.002*[#  20]
    |psi|^2 = 0.985
==== e(  17) =    -5.72408 eV ==== 
     psi = 0.235*[#  13]+0.162*[#  15]+0.086*[#  18]+0.056*[#  27]+0.056*[#  35]
          +0.047*[#  26]+0.047*[#  34]+0.045*[#  25]+0.045*[#  33]+0.043*[#  11]
          +0.040*[#  16]+0.023*[#  10]+0.021*[#  14]+0.017*[#  12]+0.014*[#  24]
          +0.014*[#  32]+0.009*[#  23]+0.009*[#  31]+0.007*[#  28]+0.007*[#  36]
          +0.004*[#  17]+0.003*[#  19]
    |psi|^2 = 0.994
==== e(  18) =    -5.59866 eV ==== 
     psi = 0.191*[#  16]+0.129*[#  25]+0.129*[#  33]+0.075*[#  11]+0.071*[#  26]
          +0.071*[#  34]+0.066*[#  14]+0.050*[#  12]+0.039*[#  17]+0.028*[#  24]
          +0.028*[#  32]+0.023*[#  23]+0.023*[#  31]+0.019*[#  28]+0.019*[#  36]
          +0.007*[#  18]+0.005*[#  27]+0.005*[#  35]+0.004*[#  15]+0.003*[#   9]
          +0.001*[#  22]+0.001*[#  30]
    |psi|^2 = 0.989
==== e(  19) =    -5.12152 eV ==== 
     psi = 0.144*[#  24]+0.144*[#  32]+0.093*[#  16]+0.085*[#  28]+0.085*[#  36]
          +0.049*[#  23]+0.049*[#  31]+0.046*[#  25]+0.046*[#  33]+0.040*[#  27]
          +0.040*[#  35]+0.032*[#  17]+0.027*[#  11]+0.027*[#  10]+0.023*[#  18]
          +0.016*[#   9]+0.016*[#  15]+0.008*[#  26]+0.008*[#  34]+0.006*[#  14]
          +0.001*[#  13]
    |psi|^2 = 0.987
==== e(  20) =    -4.58059 eV ==== 
     psi = 0.144*[#  27]+0.144*[#  35]+0.097*[#  11]+0.096*[#  15]+0.080*[#  16]
          +0.073*[#  24]+0.073*[#  32]+0.054*[#  10]+0.032*[#  26]+0.032*[#  34]
          +0.028*[#  25]+0.028*[#  33]+0.023*[#  28]+0.023*[#  36]+0.018*[#  17]
          +0.017*[#  14]+0.005*[#  13]+0.004*[#  23]+0.004*[#  31]+0.003*[#  12]
          +0.002*[#  22]+0.002*[#  30]+0.001*[#  18]+0.001*[#  20]
    |psi|^2 = 0.985
==== e(  21) =    -4.50843 eV ==== 
     psi = 0.147*[#  23]+0.147*[#  31]+0.128*[#  18]+0.128*[#  17]+0.077*[#  15]
          +0.073*[#  28]+0.073*[#  36]+0.050*[#  25]+0.050*[#  33]+0.040*[#  10]
          +0.033*[#   9]+0.011*[#  24]+0.011*[#  32]+0.005*[#  13]+0.003*[#  12]
          +0.002*[#  11]+0.001*[#  16]+0.001*[#  27]+0.001*[#  35]
    |psi|^2 = 0.986
==== e(  22) =    -4.27816 eV ==== 
     psi = 0.145*[#  26]+0.145*[#  34]+0.139*[#  14]+0.129*[#  13]+0.089*[#  17]
          +0.065*[#  28]+0.065*[#  36]+0.042*[#  23]+0.042*[#  31]+0.021*[#  25]
          +0.021*[#  33]+0.015*[#  15]+0.012*[#  27]+0.012*[#  35]+0.009*[#  12]
          +0.007*[#  24]+0.007*[#  32]+0.004*[#  16]+0.004*[#  22]+0.004*[#  30]
          +0.004*[#  18]+0.002*[#  19]+0.001*[#   9]
    |psi|^2 = 0.986
==== e(  23) =    -4.13813 eV ==== 
     psi = 0.213*[#  12]+0.166*[#  13]+0.096*[#  14]+0.086*[#  16]+0.060*[#  10]
          +0.058*[#  11]+0.055*[#  18]+0.053*[#  15]+0.026*[#  28]+0.026*[#  36]
          +0.025*[#  23]+0.025*[#  31]+0.018*[#  20]+0.018*[#  17]+0.009*[#  27]
          +0.009*[#  35]+0.008*[#  25]+0.008*[#  33]+0.006*[#  26]+0.006*[#  34]
          +0.003*[#  22]+0.003*[#  30]+0.003*[#   9]+0.002*[#  24]+0.002*[#  32]
          +0.001*[#  19]
    |psi|^2 = 0.986
==== e(  24) =    -3.98183 eV ==== 
     psi = 0.166*[#  14]+0.096*[#  23]+0.096*[#  31]+0.074*[#  25]+0.074*[#  33]
          +0.072*[#  17]+0.057*[#  18]+0.056*[#  15]+0.049*[#  12]+0.037*[#  28]
          +0.037*[#  36]+0.032*[#  10]+0.026*[#  26]+0.026*[#  34]+0.021*[#  16]
          +0.013*[#  27]+0.013*[#  35]+0.011*[#  24]+0.011*[#  32]+0.007*[#   9]
          +0.005*[#  20]+0.003*[#  13]+0.001*[#  19]
    |psi|^2 = 0.983
==== e(  25) =    -3.79722 eV ==== 
     psi = 0.157*[#  15]+0.084*[#  27]+0.084*[#  35]+0.080*[#  12]+0.076*[#  23]
          +0.076*[#  31]+0.059*[#  24]+0.059*[#  32]+0.055*[#   9]+0.046*[#  17]
          +0.033*[#  18]+0.027*[#  26]+0.027*[#  34]+0.024*[#  14]+0.023*[#  13]
          +0.022*[#  16]+0.016*[#  25]+0.016*[#  33]+0.013*[#  10]+0.003*[#  28]
          +0.003*[#  36]+0.002*[#  11]+0.001*[#  19]
    |psi|^2 = 0.988
==== e(  26) =    -3.60199 eV ==== 
     psi = 0.213*[#  17]+0.114*[#   9]+0.112*[#  12]+0.063*[#  15]+0.060*[#  24]
          +0.060*[#  32]+0.057*[#  16]+0.047*[#  14]+0.046*[#  25]+0.046*[#  33]
          +0.042*[#  13]+0.024*[#  23]+0.024*[#  31]+0.018*[#  28]+0.018*[#  36]
          +0.012*[#  26]+0.012*[#  34]+0.009*[#  10]+0.005*[#  19]+0.004*[#  20]
          
    |psi|^2 = 0.989
==== e(  27) =    -3.48101 eV ==== 
     psi = 0.206*[#  14]+0.133*[#  26]+0.133*[#  34]+0.088*[#  15]+0.077*[#  24]
          +0.077*[#  32]+0.035*[#  12]+0.029*[#   9]+0.026*[#  18]+0.024*[#  16]
          +0.021*[#  27]+0.021*[#  35]+0.019*[#  25]+0.019*[#  33]+0.015*[#  23]
          +0.015*[#  31]+0.015*[#  13]+0.010*[#  17]+0.005*[#  10]+0.005*[#  11]
          +0.003*[#  19]+0.002*[#  28]+0.002*[#  36]
    |psi|^2 = 0.983
==== e(  28) =    -3.25716 eV ==== 
     psi = 0.267*[#  10]+0.158*[#  11]+0.112*[#  12]+0.088*[#  18]+0.064*[#  16]
          +0.061*[#  17]+0.046*[#  24]+0.046*[#  32]+0.029*[#   9]+0.028*[#  13]
          +0.016*[#  27]+0.016*[#  35]+0.012*[#  19]+0.009*[#  15]+0.005*[#  28]
          +0.005*[#  36]+0.004*[#  26]+0.004*[#  34]+0.003*[#  21]+0.003*[#  29]
          +0.002*[#  14]+0.002*[#  25]+0.002*[#  33]+0.001*[#  20]
    |psi|^2 = 0.981
==== e(  29) =    -2.96125 eV ==== 
     psi = 0.235*[#  11]+0.233*[#  18]+0.119*[#  13]+0.074*[#  10]+0.065*[#  16]
          +0.046*[#   9]+0.032*[#  12]+0.031*[#  28]+0.031*[#  36]+0.028*[#  23]
          +0.028*[#  31]+0.011*[#  24]+0.011*[#  32]+0.010*[#  25]+0.010*[#  33]
          +0.008*[#  26]+0.008*[#  34]+0.003*[#  27]+0.003*[#  35]+0.002*[#  15]
          +0.002*[#  17]
    |psi|^2 = 0.991
==== e(  30) =    -2.84255 eV ==== 
     psi = 0.387*[#   9]+0.175*[#  11]+0.118*[#  16]+0.055*[#  23]+0.055*[#  31]
          +0.052*[#  12]+0.033*[#  24]+0.033*[#  32]+0.030*[#  17]+0.008*[#  25]
          +0.008*[#  33]+0.006*[#  28]+0.006*[#  36]+0.004*[#  18]+0.004*[#  14]
          +0.004*[#  13]+0.004*[#  19]+0.003*[#  27]+0.003*[#  35]
    |psi|^2 = 0.990
==== e(  31) =    -2.70734 eV ==== 
     psi = 0.226*[#  25]+0.226*[#  33]+0.078*[#  14]+0.069*[#  18]+0.056*[#  28]
          +0.056*[#  36]+0.055*[#  15]+0.047*[#  12]+0.023*[#  13]+0.021*[#  16]
          +0.019*[#  10]+0.018*[#  24]+0.018*[#  32]+0.015*[#   9]+0.009*[#  26]
          +0.009*[#  27]+0.009*[#  34]+0.009*[#  35]+0.006*[#  11]+0.005*[#  23]
          +0.005*[#  31]+0.005*[#  22]+0.005*[#  30]+0.003*[#  17]+0.002*[#  19]
          
    |psi|^2 = 0.993
==== e(  32) =    -2.16832 eV ==== 
     psi = 0.201*[#  26]+0.201*[#  34]+0.100*[#  13]+0.098*[#  27]+0.098*[#  35]
          +0.058*[#  16]+0.056*[#  11]+0.053*[#  24]+0.053*[#  32]+0.019*[#  15]
          +0.017*[#  14]+0.011*[#  17]+0.006*[#   9]+0.006*[#  10]+0.003*[#  12]
          +0.003*[#  25]+0.003*[#  33]+0.002*[#  23]+0.002*[#  31]+0.002*[#  20]
          +0.001*[#  28]+0.001*[#  36]
    |psi|^2 = 0.997
==== e(  33) =    -1.43070 eV ==== 
     psi = 0.183*[#  10]+0.122*[#   9]+0.116*[#  24]+0.116*[#  32]+0.115*[#  18]
          +0.075*[#  17]+0.061*[#  12]+0.033*[#  15]+0.016*[#  27]+0.016*[#  35]
          +0.016*[#  23]+0.016*[#  31]+0.015*[#  13]+0.013*[#  16]+0.010*[#  25]
          +0.010*[#  33]+0.008*[#  21]+0.008*[#  29]+0.008*[#  26]+0.008*[#  28]
          +0.008*[#  34]+0.008*[#  36]+0.004*[#  11]
    |psi|^2 = 0.987
==== e(  34) =    -1.02570 eV ==== 
     psi = 0.139*[#  10]+0.129*[#  23]+0.129*[#  31]+0.128*[#  17]+0.088*[#  12]
          +0.068*[#   9]+0.058*[#  25]+0.058*[#  33]+0.056*[#  28]+0.056*[#  36]
          +0.036*[#  15]+0.031*[#  18]+0.012*[#  13]+0.002*[#  24]+0.002*[#  32]
          
    |psi|^2 = 0.993
==== e(  35) =     1.51124 eV ==== 
     psi = 0.379*[#  20]+0.042*[#  26]+0.042*[#  34]+0.017*[#  27]+0.017*[#  35]
          +0.014*[#  25]+0.014*[#  33]+0.013*[#  22]+0.013*[#  24]+0.013*[#  30]
          +0.013*[#  32]+0.006*[#  28]+0.006*[#  36]+0.003*[#  14]+0.002*[#  15]
          +0.001*[#   2]
    |psi|^2 = 0.598
==== e(  36) =     1.72361 eV ==== 
     psi = 0.356*[#  19]+0.044*[#  23]+0.044*[#  31]+0.017*[#  28]+0.017*[#  36]
          +0.014*[#  25]+0.014*[#  33]+0.013*[#  24]+0.013*[#  32]+0.012*[#  21]
          +0.012*[#  29]+0.005*[#  27]+0.005*[#  35]+0.004*[#   9]+0.003*[#  18]
          +0.001*[#   1]
    |psi|^2 = 0.578
==== e(  37) =     3.06387 eV ==== 
     psi = 0.085*[#  20]+0.006*[#  25]+0.006*[#  33]+0.004*[#  22]+0.004*[#  30]
          +0.002*[#  26]+0.002*[#  28]+0.002*[#  34]+0.002*[#  36]+0.002*[#  14]
          +0.002*[#  15]+0.001*[#  27]+0.001*[#  35]+0.001*[#  13]
    |psi|^2 = 0.127
==== e(  38) =     3.20580 eV ==== 
     psi = 0.097*[#  19]+0.007*[#  24]+0.007*[#  32]+0.005*[#  21]+0.005*[#  29]
          +0.003*[#   9]+0.003*[#  23]+0.003*[#  31]+0.003*[#  27]+0.003*[#  35]
          +0.002*[#  18]+0.002*[#  10]+0.002*[#  28]+0.002*[#  36]+0.001*[#  17]
          
    |psi|^2 = 0.148
==== e(  39) =     3.48446 eV ==== 
     psi = 0.022*[#  20]+0.002*[#  26]+0.002*[#  34]+0.002*[#  25]+0.002*[#  33]
          +0.001*[#  14]+0.001*[#  22]+0.001*[#  30]
    |psi|^2 = 0.040
==== e(  40) =     3.61402 eV ==== 
     psi = 0.019*[#  19]+0.002*[#   9]+0.002*[#  23]+0.002*[#  31]+0.002*[#  18]
          +0.001*[#  24]+0.001*[#  32]
    |psi|^2 = 0.039

 k =   0.0000000000  0.4330127019  0.0000000000
==== e(   1) =  -105.88905 eV ==== 
     psi = 0.995*[#   2]
    |psi|^2 = 1.000
==== e(   2) =  -104.55583 eV ==== 
     psi = 0.995*[#   1]
    |psi|^2 = 1.000
==== e(   3) =   -67.47835 eV ==== 
     psi = 0.947*[#   7]+0.052*[#   4]
    |psi|^2 = 1.000
==== e(   4) =   -67.10414 eV ==== 
     psi = 0.885*[#   8]+0.114*[#   5]
    |psi|^2 = 1.000
==== e(   5) =   -65.59506 eV ==== 
     psi = 0.999*[#   6]
    |psi|^2 = 1.000
==== e(   6) =   -64.91139 eV ==== 
     psi = 0.885*[#   5]+0.114*[#   8]
    |psi|^2 = 1.000
==== e(   7) =   -64.48885 eV ==== 
     psi = 0.947*[#   4]+0.052*[#   7]
    |psi|^2 = 1.000
==== e(   8) =   -64.16933 eV ==== 
     psi = 0.999*[#   3]
    |psi|^2 = 1.000
==== e(   9) =   -14.94069 eV ==== 
     psi = 0.451*[#  22]+0.451*[#  30]+0.070*[#  20]+0.004*[#  26]+0.004*[#  34]
          +0.003*[#  25]+0.003*[#  33]+0.002*[#  27]+0.002*[#  35]+0.001*[#  28]
          +0.001*[#  36]+0.001*[#  24]+0.001*[#  32]
    |psi|^2 = 0.999
==== e(  10) =   -14.71086 eV ==== 
     psi = 0.450*[#  21]+0.450*[#  29]+0.072*[#  19]+0.004*[#  23]+0.004*[#  31]
          +0.003*[#  24]+0.003*[#  32]+0.002*[#  28]+0.002*[#  36]+0.002*[#  27]
          +0.002*[#  35]+0.001*[#  25]+0.001*[#  33]
    |psi|^2 = 0.998
==== e(  11) =   -14.50337 eV ==== 
     psi = 0.484*[#  22]+0.484*[#  30]+0.006*[#  20]+0.005*[#  13]+0.004*[#  16]
          +0.004*[#  14]+0.003*[#  15]+0.003*[#  11]+0.001*[#  18]
    |psi|^2 = 0.999
==== e(  12) =   -14.24934 eV ==== 
     psi = 0.486*[#  21]+0.486*[#  29]+0.007*[#  19]+0.005*[#  10]+0.003*[#  17]
          +0.003*[#   9]+0.002*[#  18]+0.002*[#  12]+0.001*[#  15]
    |psi|^2 = 0.999
==== e(  13) =    -7.22196 eV ==== 
     psi = 0.174*[#  20]+0.154*[#  27]+0.154*[#  35]+0.123*[#  26]+0.123*[#  34]
          +0.038*[#  24]+0.038*[#  32]+0.025*[#  25]+0.025*[#  33]+0.020*[#  22]
          +0.020*[#  30]+0.019*[#  13]+0.018*[#  14]+0.017*[#  28]+0.017*[#  36]
          +0.009*[#  15]+0.005*[#  16]+0.003*[#  10]+0.003*[#  18]+0.002*[#   2]
          +0.002*[#  11]
    |psi|^2 = 0.992
==== e(  14) =    -7.03288 eV ==== 
     psi = 0.181*[#  19]+0.154*[#  28]+0.154*[#  36]+0.125*[#  23]+0.125*[#  31]
          +0.034*[#  25]+0.034*[#  33]+0.025*[#  24]+0.025*[#  32]+0.022*[#  21]
          +0.022*[#  29]+0.020*[#  27]+0.020*[#  35]+0.014*[#   9]+0.013*[#  10]
          +0.007*[#  18]+0.005*[#  17]+0.005*[#  13]+0.002*[#   1]+0.001*[#  12]
          
    |psi|^2 = 0.991
==== e(  15) =    -6.56868 eV ==== 
     psi = 0.192*[#  27]+0.192*[#  35]+0.110*[#  26]+0.110*[#  34]+0.053*[#  25]
          +0.053*[#  33]+0.040*[#  28]+0.040*[#  36]+0.034*[#  14]+0.029*[#  24]
          +0.029*[#  32]+0.018*[#  15]+0.017*[#  11]+0.017*[#  13]+0.016*[#  16]
          +0.010*[#  20]+0.007*[#  22]+0.007*[#  30]+0.006*[#  10]+0.003*[#  18]
          +0.002*[#  23]+0.002*[#  31]
    |psi|^2 = 0.988
==== e(  16) =    -6.30779 eV ==== 
     psi = 0.218*[#  28]+0.218*[#  36]+0.109*[#  23]+0.109*[#  31]+0.062*[#  24]
          +0.062*[#  32]+0.050*[#  27]+0.050*[#  35]+0.019*[#  25]+0.019*[#  33]
          +0.011*[#   9]+0.010*[#  19]+0.009*[#  21]+0.009*[#  29]+0.007*[#  12]
          +0.005*[#  18]+0.004*[#  10]+0.003*[#  11]+0.003*[#  26]+0.003*[#  34]
          +0.002*[#  13]
    |psi|^2 = 0.985
==== e(  17) =    -5.71559 eV ==== 
     psi = 0.242*[#  13]+0.147*[#  15]+0.097*[#  16]+0.079*[#  11]+0.067*[#  18]
          +0.064*[#  26]+0.064*[#  34]+0.056*[#  27]+0.056*[#  35]+0.025*[#  14]
          +0.021*[#  10]+0.018*[#  25]+0.018*[#  33]+0.008*[#  24]+0.008*[#  32]
          +0.006*[#  12]+0.005*[#  28]+0.005*[#  36]+0.003*[#  23]+0.003*[#  31]
          +0.001*[#  20]
    |psi|^2 = 0.996
==== e(  18) =    -5.57290 eV ==== 
     psi = 0.150*[#  25]+0.150*[#  33]+0.145*[#  16]+0.092*[#  14]+0.071*[#  11]
          +0.059*[#  28]+0.059*[#  36]+0.054*[#  12]+0.035*[#  26]+0.035*[#  34]
          +0.028*[#  17]+0.017*[#  23]+0.017*[#  31]+0.015*[#  15]+0.014*[#  18]
          +0.010*[#  24]+0.010*[#  32]+0.009*[#  13]+0.008*[#  10]+0.005*[#  22]
          +0.005*[#  30]+0.002*[#  27]+0.002*[#  35]
    |psi|^2 = 0.991
==== e(  19) =    -5.02883 eV ==== 
     psi = 0.166*[#  24]+0.166*[#  32]+0.098*[#  16]+0.087*[#  27]+0.087*[#  35]
          +0.041*[#  28]+0.041*[#  36]+0.040*[#  25]+0.040*[#  33]+0.033*[#  18]
          +0.027*[#  23]+0.027*[#  31]+0.019*[#   9]+0.019*[#  11]+0.019*[#  17]
          +0.019*[#  26]+0.019*[#  34]+0.016*[#  15]+0.015*[#  10]+0.004*[#  14]
          
    |psi|^2 = 0.986
==== e(  20) =    -4.71169 eV ==== 
     psi = 0.106*[#  27]+0.106*[#  35]+0.094*[#  24]+0.094*[#  32]+0.080*[#  15]
          +0.068*[#  28]+0.068*[#  36]+0.067*[#  25]+0.067*[#  33]+0.057*[#  11]
          +0.033*[#  10]+0.028*[#  16]+0.028*[#  23]+0.028*[#  31]+0.016*[#  17]
          +0.011*[#  12]+0.006*[#  14]+0.005*[#  13]+0.004*[#  20]+0.003*[#   9]
          +0.003*[#  18]+0.003*[#  22]+0.003*[#  30]+0.003*[#  26]+0.003*[#  34]
          +0.001*[#  19]
    |psi|^2 = 0.986
==== e(  21) =    -4.51080 eV ==== 
     psi = 0.133*[#  17]+0.120*[#  23]+0.120*[#  31]+0.085*[#  28]+0.085*[#  36]
          +0.080*[#  18]+0.071*[#  10]+0.056*[#  25]+0.056*[#  33]+0.054*[#  15]
          +0.018*[#  14]+0.017*[#  26]+0.017*[#  34]+0.014*[#  27]+0.014*[#  35]
          +0.011*[#  13]+0.010*[#  24]+0.010*[#  32]+0.008*[#   9]+0.005*[#  12]
          +0.001*[#  11]
    |psi|^2 = 0.987
==== e(  22) =    -4.42189 eV ==== 
     psi = 0.189*[#  26]+0.189*[#  34]+0.113*[#  14]+0.101*[#  17]+0.049*[#  13]
          +0.040*[#  27]+0.040*[#  35]+0.039*[#  28]+0.039*[#  36]+0.038*[#  15]
          +0.036*[#  23]+0.036*[#  31]+0.016*[#  11]+0.012*[#  24]+0.012*[#  32]
          +0.011*[#   9]+0.008*[#  25]+0.008*[#  33]+0.001*[#  19]+0.001*[#  18]
          +0.001*[#  22]+0.001*[#  30]
    |psi|^2 = 0.985
==== e(  23) =    -4.19034 eV ==== 
     psi = 0.280*[#  12]+0.168*[#  13]+0.091*[#  18]+0.069*[#  16]+0.064*[#  10]
          +0.054*[#  11]+0.038*[#  23]+0.038*[#  31]+0.030*[#  28]+0.030*[#  36]
          +0.022*[#  17]+0.021*[#  15]+0.014*[#  14]+0.010*[#  20]+0.009*[#  26]
          +0.009*[#  34]+0.007*[#  27]+0.007*[#  35]+0.005*[#  24]+0.005*[#  32]
          +0.004*[#  22]+0.004*[#  30]+0.003*[#   9]+0.002*[#  25]+0.002*[#  33]
          +0.002*[#  19]
    |psi|^2 = 0.986
==== e(  24) =    -4.09453 eV ==== 
     psi = 0.175*[#  14]+0.110*[#  25]+0.110*[#  33]+0.081*[#  23]+0.081*[#  31]
          +0.069*[#  17]+0.061*[#  16]+0.043*[#  15]+0.033*[#  13]+0.029*[#  28]
          +0.029*[#  36]+0.028*[#  26]+0.028*[#  34]+0.024*[#  18]+0.019*[#  24]
          +0.019*[#  32]+0.012*[#  20]+0.007*[#  11]+0.005*[#  27]+0.005*[#  35]
          +0.005*[#  10]+0.002*[#  12]+0.001*[#  19]
    |psi|^2 = 0.980
==== e(  25) =    -3.97408 eV ==== 
     psi = 0.167*[#  15]+0.120*[#  23]+0.120*[#  31]+0.094*[#  24]+0.094*[#  32]
          +0.075*[#   9]+0.045*[#  27]+0.045*[#  35]+0.042*[#  14]+0.040*[#  18]
          +0.036*[#  12]+0.029*[#  16]+0.024*[#  17]+0.017*[#  13]+0.013*[#  10]
          +0.005*[#  26]+0.005*[#  34]+0.003*[#  28]+0.003*[#  36]+0.002*[#  11]
          +0.002*[#  19]
    |psi|^2 = 0.987
==== e(  26) =    -3.73716 eV ==== 
     psi = 0.213*[#  15]+0.103*[#  24]+0.103*[#  32]+0.084*[#  17]+0.069*[#   9]
          +0.069*[#  13]+0.049*[#  10]+0.046*[#  12]+0.043*[#  26]+0.043*[#  34]
          +0.034*[#  23]+0.034*[#  31]+0.023*[#  14]+0.016*[#  25]+0.016*[#  33]
          +0.008*[#  27]+0.008*[#  35]+0.005*[#  19]+0.004*[#  28]+0.004*[#  36]
          +0.004*[#  20]+0.003*[#  16]+0.002*[#  11]
    |psi|^2 = 0.986
==== e(  27) =    -3.67527 eV ==== 
     psi = 0.319*[#  14]+0.144*[#  17]+0.136*[#  12]+0.078*[#  16]+0.063*[#  26]
          +0.063*[#  34]+0.049*[#  25]+0.049*[#  33]+0.015*[#  24]+0.015*[#  32]
          +0.013*[#  18]+0.010*[#  27]+0.010*[#  35]+0.004*[#  20]+0.004*[#  28]
          +0.004*[#  36]+0.004*[#  11]+0.002*[#  13]+0.002*[#   9]+0.001*[#  10]
          +0.001*[#  15]
    |psi|^2 = 0.990
==== e(  28) =    -3.27241 eV ==== 
     psi = 0.255*[#  10]+0.167*[#  11]+0.116*[#  12]+0.091*[#  18]+0.075*[#  17]
          +0.062*[#  16]+0.035*[#   9]+0.032*[#  13]+0.031*[#  24]+0.031*[#  32]
          +0.020*[#  15]+0.015*[#  27]+0.015*[#  35]+0.015*[#  19]+0.004*[#  14]
          +0.003*[#  21]+0.003*[#  29]+0.002*[#  28]+0.002*[#  36]+0.001*[#  20]
          
    |psi|^2 = 0.980
==== e(  29) =    -3.04332 eV ==== 
     psi = 0.336*[#  18]+0.175*[#  11]+0.120*[#  13]+0.105*[#   9]+0.066*[#  16]
          +0.047*[#  10]+0.020*[#  12]+0.019*[#  23]+0.019*[#  31]+0.012*[#  25]
          +0.012*[#  33]+0.011*[#  28]+0.011*[#  36]+0.009*[#  15]+0.007*[#  24]
          +0.007*[#  32]+0.006*[#  17]+0.002*[#  27]+0.002*[#  35]+0.002*[#  26]
          +0.002*[#  34]+0.001*[#  19]
    |psi|^2 = 0.992
==== e(  30) =    -2.93945 eV ==== 
     psi = 0.438*[#   9]+0.223*[#  11]+0.132*[#  16]+0.039*[#  12]+0.033*[#  17]
          +0.025*[#  23]+0.025*[#  31]+0.021*[#  24]+0.021*[#  32]+0.009*[#  19]
          +0.004*[#  25]+0.004*[#  33]+0.003*[#  10]+0.003*[#  27]+0.003*[#  35]
          +0.002*[#  28]+0.002*[#  36]+0.001*[#  18]+0.001*[#  14]
    |psi|^2 = 0.991
==== e(  31) =    -2.59430 eV ==== 
     psi = 0.198*[#  25]+0.198*[#  33]+0.079*[#  14]+0.077*[#  28]+0.077*[#  36]
          +0.071*[#  12]+0.057*[#  13]+0.047*[#  15]+0.035*[#  18]+0.032*[#  10]
          +0.018*[#  24]+0.018*[#  32]+0.017*[#  27]+0.017*[#  35]+0.013*[#  16]
          +0.011*[#  11]+0.005*[#  26]+0.005*[#  34]+0.004*[#  22]+0.004*[#  30]
          +0.003*[#   9]+0.002*[#  17]+0.002*[#  19]+0.002*[#  20]
    |psi|^2 = 0.994
==== e(  32) =    -2.19214 eV ==== 
     psi = 0.197*[#  26]+0.197*[#  34]+0.101*[#  13]+0.097*[#  27]+0.097*[#  35]
          +0.070*[#  11]+0.069*[#  16]+0.049*[#  24]+0.049*[#  32]+0.015*[#  14]
          +0.010*[#  10]+0.010*[#  17]+0.009*[#  15]+0.005*[#  25]+0.005*[#  33]
          +0.004*[#   9]+0.003*[#  28]+0.003*[#  36]+0.002*[#  18]+0.001*[#  12]
          +0.001*[#  20]
    |psi|^2 = 0.997
==== e(  33) =    -1.29727 eV ==== 
     psi = 0.206*[#  10]+0.120*[#  24]+0.120*[#  32]+0.114*[#  18]+0.105*[#   9]
          +0.058*[#  17]+0.049*[#  12]+0.041*[#  15]+0.022*[#  27]+0.022*[#  35]
          +0.017*[#  13]+0.016*[#  16]+0.013*[#  25]+0.013*[#  33]+0.012*[#  28]
          +0.012*[#  36]+0.007*[#  23]+0.007*[#  26]+0.007*[#  31]+0.007*[#  34]
          +0.007*[#  21]+0.007*[#  29]+0.006*[#  11]+0.002*[#  19]
    |psi|^2 = 0.989
==== e(  34) =    -1.02809 eV ==== 
     psi = 0.154*[#  17]+0.128*[#  23]+0.128*[#  31]+0.124*[#  10]+0.104*[#  12]
[...]
          +0.002*[#  26]+0.002*[#  29]
    |psi|^2 = 0.984
==== e(  20) =    -4.47059 eV ==== 
     psi = 0.245*[#  16]+0.144*[#  36]+0.076*[#  14]+0.056*[#  13]+0.056*[#  15]
          +0.056*[#  28]+0.053*[#  23]+0.046*[#  26]+0.043*[#  11]+0.039*[#  10]
          +0.032*[#  27]+0.030*[#  34]+0.020*[#  35]+0.018*[#  18]+0.017*[#  12]
          +0.010*[#  32]+0.008*[#  19]+0.007*[#  31]+0.006*[#  17]+0.006*[#  33]
          +0.006*[#   9]+0.004*[#  20]+0.003*[#  21]+0.003*[#  30]+0.003*[#  29]
          
    |psi|^2 = 0.988
==== e(  21) =    -4.38364 eV ==== 
     psi = 0.184*[#  28]+0.169*[#  36]+0.150*[#  11]+0.077*[#  14]+0.063*[#  15]
          +0.043*[#  34]+0.040*[#  13]+0.034*[#  24]+0.031*[#  10]+0.027*[#  32]
          +0.025*[#  23]+0.025*[#  31]+0.022*[#  17]+0.013*[#  16]+0.013*[#  19]
          +0.010*[#  25]+0.010*[#  27]+0.009*[#  18]+0.009*[#  35]+0.007*[#  33]
          +0.007*[#  26]+0.005*[#  29]+0.004*[#  21]+0.003*[#  12]+0.002*[#  20]
          +0.001*[#  30]
    |psi|^2 = 0.984
==== e(  22) =    -4.03292 eV ==== 
     psi = 0.214*[#  13]+0.160*[#  12]+0.126*[#  17]+0.115*[#  15]+0.089*[#  14]
          +0.056*[#  16]+0.054*[#  10]+0.035*[#  11]+0.023*[#  27]+0.019*[#  20]
          +0.016*[#  18]+0.012*[#  35]+0.009*[#  31]+0.008*[#  23]+0.007*[#  26]
          +0.007*[#   9]+0.007*[#  28]+0.006*[#  33]+0.006*[#  25]+0.005*[#  30]
          +0.005*[#  34]+0.005*[#  22]+0.003*[#  24]+0.002*[#  36]
    |psi|^2 = 0.990
==== e(  23) =    -3.72157 eV ==== 
     psi = 0.284*[#  17]+0.133*[#  23]+0.080*[#  31]+0.074*[#  35]+0.068*[#  25]
          +0.061*[#   9]+0.048*[#  36]+0.046*[#  15]+0.045*[#  28]+0.028*[#  13]
          +0.023*[#  11]+0.022*[#  12]+0.019*[#  27]+0.009*[#  16]+0.008*[#  19]
          +0.007*[#  10]+0.006*[#  24]+0.006*[#  33]+0.005*[#  18]+0.004*[#  21]
          +0.002*[#  26]+0.002*[#  29]+0.001*[#  34]
    |psi|^2 = 0.984
==== e(  24) =    -3.58262 eV ==== 
     psi = 0.246*[#  12]+0.186*[#  27]+0.111*[#  33]+0.091*[#  31]+0.084*[#  35]
          +0.057*[#  13]+0.029*[#  17]+0.026*[#  28]+0.026*[#  15]+0.023*[#  32]
          +0.020*[#  34]+0.017*[#  36]+0.015*[#  11]+0.014*[#  10]+0.010*[#  25]
          +0.007*[#  14]+0.006*[#  23]+0.004*[#  19]+0.003*[#  26]+0.003*[#  24]
          +0.002*[#  18]+0.002*[#  20]+0.002*[#  21]+0.001*[#  16]+0.001*[#   9]
          +0.001*[#  29]
    |psi|^2 = 0.988
==== e(  25) =    -3.41538 eV ==== 
     psi = 0.229*[#  25]+0.222*[#  10]+0.150*[#  33]+0.078*[#  12]+0.059*[#  18]
          +0.037*[#  35]+0.028*[#  15]+0.020*[#  31]+0.019*[#   9]+0.019*[#  32]
          +0.018*[#  34]+0.018*[#  36]+0.018*[#  28]+0.014*[#  26]+0.014*[#  13]
          +0.012*[#  17]+0.011*[#  27]+0.008*[#  14]+0.008*[#  24]+0.001*[#  23]
          
    |psi|^2 = 0.984
==== e(  26) =    -3.30040 eV ==== 
     psi = 0.143*[#  14]+0.114*[#  17]+0.106*[#  16]+0.095*[#  11]+0.081*[#   9]
          +0.063*[#  26]+0.061*[#  34]+0.051*[#  32]+0.048*[#  27]+0.030*[#  24]
          +0.030*[#  33]+0.029*[#  36]+0.026*[#  18]+0.025*[#  15]+0.018*[#  35]
          +0.012*[#  25]+0.011*[#  10]+0.009*[#  23]+0.007*[#  19]+0.006*[#  28]
          +0.005*[#  31]+0.004*[#  20]+0.004*[#  30]+0.003*[#  13]+0.002*[#  29]
          +0.001*[#  21]
    |psi|^2 = 0.986
==== e(  27) =    -3.19232 eV ==== 
     psi = 0.178*[#  12]+0.139*[#  10]+0.096*[#  14]+0.090*[#  11]+0.076*[#  32]
          +0.075*[#  18]+0.061*[#   9]+0.038*[#  34]+0.037*[#  26]+0.031*[#  24]
          +0.023*[#  27]+0.022*[#  16]+0.021*[#  13]+0.016*[#  15]+0.013*[#  17]
          +0.012*[#  25]+0.011*[#  35]+0.011*[#  31]+0.011*[#  19]+0.007*[#  36]
          +0.005*[#  23]+0.003*[#  28]+0.002*[#  21]+0.002*[#  29]+0.002*[#  33]
          +0.002*[#  20]+0.001*[#  30]
    |psi|^2 = 0.985
==== e(  28) =    -3.06501 eV ==== 
     psi = 0.295*[#  24]+0.160*[#  32]+0.104*[#  14]+0.060*[#  34]+0.050*[#  26]
          +0.050*[#  15]+0.045*[#  35]+0.036*[#  10]+0.030*[#  11]+0.029*[#  28]
          +0.024*[#  27]+0.019*[#  23]+0.017*[#  12]+0.011*[#  31]+0.011*[#  36]
          +0.010*[#  33]+0.008*[#  18]+0.006*[#  13]+0.005*[#   9]+0.005*[#  22]
          +0.003*[#  17]+0.003*[#  16]+0.002*[#  20]+0.001*[#  30]
    |psi|^2 = 0.984
==== e(  29) =    -2.78966 eV ==== 
     psi = 0.279*[#  11]+0.113*[#  33]+0.105*[#  16]+0.099*[#  18]+0.081*[#  25]
          +0.043*[#  10]+0.039*[#  24]+0.036*[#  15]+0.034*[#  34]+0.032*[#  31]
          +0.023*[#  28]+0.022*[#  13]+0.020*[#  36]+0.014*[#  23]+0.010*[#  26]
          +0.010*[#  35]+0.008*[#  27]+0.007*[#  14]+0.005*[#  32]+0.003*[#   9]
          +0.002*[#  17]
    |psi|^2 = 0.989
==== e(  30) =    -2.57795 eV ==== 
     psi = 0.235*[#   9]+0.221*[#  23]+0.123*[#  31]+0.060*[#  33]+0.055*[#  26]
          +0.044*[#  36]+0.040*[#  16]+0.032*[#  11]+0.023*[#  25]+0.021*[#  18]
          +0.020*[#  13]+0.019*[#  12]+0.017*[#  32]+0.015*[#  34]+0.014*[#  10]
          +0.009*[#  17]+0.008*[#  24]+0.005*[#  35]+0.004*[#  14]+0.004*[#  15]
          +0.004*[#  27]+0.003*[#  28]+0.002*[#  21]+0.001*[#  19]
    |psi|^2 = 0.982
==== e(  31) =    -2.51581 eV ==== 
     psi = 0.269*[#  26]+0.137*[#  32]+0.132*[#  34]+0.053*[#  35]+0.042*[#  24]
          +0.041*[#  25]+0.039*[#  16]+0.037*[#  14]+0.036*[#  15]+0.030*[#  33]
          +0.027*[#  11]+0.026*[#  23]+0.024*[#   9]+0.022*[#  18]+0.022*[#  31]
          +0.015*[#  13]+0.007*[#  10]+0.007*[#  27]+0.006*[#  12]+0.006*[#  22]
          +0.005*[#  17]+0.002*[#  30]+0.002*[#  28]+0.001*[#  20]
    |psi|^2 = 0.987
==== e(  32) =    -2.11345 eV ==== 
     psi = 0.332*[#  34]+0.161*[#  26]+0.094*[#  24]+0.082*[#  27]+0.065*[#  15]
          +0.057*[#  13]+0.039*[#  14]+0.038*[#  32]+0.038*[#  35]+0.033*[#  16]
          +0.017*[#  10]+0.010*[#  11]+0.006*[#  31]+0.006*[#  25]+0.004*[#  18]
          +0.002*[#  12]+0.001*[#  30]
    |psi|^2 = 0.990
==== e(  33) =    -1.41144 eV ==== 
     psi = 0.173*[#   9]+0.147*[#  31]+0.116*[#  17]+0.100*[#  10]+0.083*[#  12]
          +0.079*[#  18]+0.070*[#  28]+0.059*[#  25]+0.032*[#  23]+0.025*[#  32]
          +0.018*[#  13]+0.018*[#  15]+0.016*[#  24]+0.014*[#  36]+0.009*[#  29]
          +0.007*[#  33]+0.005*[#  21]+0.004*[#  35]+0.002*[#  27]+0.001*[#  11]
          
    |psi|^2 = 0.981
==== e(  34) =    -1.03504 eV ==== 
     psi = 0.213*[#  23]+0.143*[#  10]+0.109*[#  18]+0.095*[#  31]+0.079*[#   9]
          +0.073*[#  36]+0.060*[#  17]+0.056*[#  33]+0.042*[#  12]+0.032*[#  13]
          +0.030*[#  15]+0.026*[#  28]+0.017*[#  25]+0.001*[#  21]+0.001*[#  32]
          
    |psi|^2 = 0.984
==== e(  35) =     2.47750 eV ==== 
     psi = 0.307*[#  20]+0.029*[#  30]+0.028*[#  22]+0.024*[#  33]+0.024*[#  25]
          +0.020*[#  26]+0.011*[#  34]+0.009*[#  35]+0.009*[#  36]+0.009*[#  28]
          +0.006*[#  32]+0.005*[#  27]+0.004*[#  24]
    |psi|^2 = 0.486
==== e(  36) =     2.60377 eV ==== 
     psi = 0.244*[#  19]+0.023*[#  21]+0.023*[#  29]+0.019*[#  24]+0.019*[#  32]
          +0.015*[#  31]+0.010*[#  23]+0.008*[#  27]+0.007*[#  35]+0.007*[#  28]
          +0.005*[#  36]+0.004*[#  25]+0.003*[#  33]
    |psi|^2 = 0.389
==== e(  37) =     2.87198 eV ==== 
     psi = 0.065*[#  20]+0.015*[#  26]+0.007*[#  35]+0.006*[#  30]+0.005*[#  22]
          +0.004*[#  25]+0.004*[#  32]+0.004*[#  33]+0.004*[#  34]+0.002*[#  28]
          +0.002*[#  36]+0.001*[#  27]+0.001*[#  24]
    |psi|^2 = 0.123
==== e(  38) =     2.94244 eV ==== 
     psi = 0.033*[#  20]+0.010*[#  19]+0.007*[#  26]+0.004*[#  35]+0.003*[#  28]
          +0.003*[#  30]+0.003*[#  31]+0.003*[#  22]+0.003*[#  32]+0.002*[#  25]
          +0.002*[#  36]+0.002*[#  33]+0.001*[#  27]+0.001*[#  34]
    |psi|^2 = 0.083
==== e(  39) =     3.00315 eV ==== 
     psi = 0.022*[#  20]+0.017*[#  19]+0.004*[#  26]+0.004*[#  31]+0.004*[#  25]
          +0.004*[#  33]+0.003*[#  32]+0.002*[#  24]+0.002*[#  30]+0.002*[#  35]
          +0.002*[#  22]+0.002*[#  28]+0.002*[#  23]+0.001*[#  21]+0.001*[#  29]
          
    |psi|^2 = 0.075
==== e(  40) =     3.10418 eV ==== 
     psi = 0.134*[#  19]+0.026*[#  31]+0.013*[#  28]+0.012*[#  21]+0.011*[#  29]
          +0.011*[#  24]+0.009*[#  32]+0.009*[#  25]+0.005*[#  23]+0.004*[#  35]
          +0.004*[#  27]+0.002*[#  11]+0.002*[#  33]+0.002*[#  36]+0.001*[#   9]
          +0.001*[#  16]+0.001*[#  18]
    |psi|^2 = 0.248

 k =  -0.0625000000 -0.1082531755  0.0000000000
==== e(   1) =  -105.88906 eV ==== 
     psi = 0.995*[#   2]+0.001*[#  25]+0.001*[#  33]
    |psi|^2 = 1.000
==== e(   2) =  -104.55584 eV ==== 
     psi = 0.995*[#   1]+0.001*[#  24]+0.001*[#  32]
    |psi|^2 = 1.000
==== e(   3) =   -67.47819 eV ==== 
     psi = 0.947*[#   7]+0.052*[#   4]
    |psi|^2 = 1.000
==== e(   4) =   -67.10412 eV ==== 
     psi = 0.886*[#   8]+0.114*[#   5]
    |psi|^2 = 1.000
==== e(   5) =   -65.59481 eV ==== 
     psi = 0.999*[#   6]
    |psi|^2 = 1.000
==== e(   6) =   -64.91125 eV ==== 
     psi = 0.886*[#   5]+0.114*[#   8]
    |psi|^2 = 1.000
==== e(   7) =   -64.48887 eV ==== 
     psi = 0.947*[#   4]+0.052*[#   7]
    |psi|^2 = 1.000
==== e(   8) =   -64.16906 eV ==== 
     psi = 0.999*[#   3]
    |psi|^2 = 1.000
==== e(   9) =   -15.70265 eV ==== 
     psi = 0.372*[#  22]+0.372*[#  30]+0.240*[#  20]+0.003*[#  25]+0.003*[#  33]
          +0.001*[#  28]+0.001*[#  34]+0.001*[#  36]+0.001*[#  26]
    |psi|^2 = 1.000
==== e(  10) =   -15.48724 eV ==== 
     psi = 0.369*[#  21]+0.369*[#  29]+0.245*[#  19]+0.003*[#  24]+0.003*[#  32]
          +0.002*[#  27]+0.002*[#  35]+0.001*[#  23]+0.001*[#  31]
    |psi|^2 = 1.000
==== e(  11) =   -14.80392 eV ==== 
     psi = 0.493*[#  22]+0.493*[#  30]+0.002*[#  25]+0.002*[#  33]+0.001*[#  26]
          +0.001*[#  34]
    |psi|^2 = 0.997
==== e(  12) =   -14.55957 eV ==== 
     psi = 0.493*[#  21]+0.493*[#  29]+0.002*[#  24]+0.002*[#  32]+0.001*[#  31]
          +0.001*[#  23]
    |psi|^2 = 0.997
==== e(  13) =    -6.80761 eV ==== 
     psi = 0.199*[#  25]+0.199*[#  33]+0.178*[#  28]+0.177*[#  36]+0.077*[#  20]
          +0.058*[#  12]+0.035*[#  22]+0.035*[#  30]+0.029*[#  17]+0.002*[#   2]
          +0.002*[#   9]
    |psi|^2 = 0.995
==== e(  14) =    -6.64409 eV ==== 
     psi = 0.218*[#  27]+0.218*[#  35]+0.157*[#  32]+0.156*[#  24]+0.074*[#  19]
          +0.069*[#  11]+0.036*[#  21]+0.036*[#  29]+0.020*[#  14]+0.004*[#  16]
          +0.002*[#   1]+0.001*[#  33]
    |psi|^2 = 0.994
==== e(  15) =    -5.86329 eV ==== 
     psi = 0.244*[#  14]+0.202*[#  16]+0.099*[#  32]+0.094*[#  24]+0.059*[#  11]
          +0.058*[#  15]+0.041*[#  35]+0.038*[#  13]+0.031*[#  26]+0.030*[#  27]
          +0.016*[#  34]+0.014*[#  10]+0.014*[#  36]+0.014*[#  28]+0.010*[#  18]
          +0.010*[#  33]+0.009*[#  25]+0.007*[#  19]+0.003*[#  21]+0.003*[#  29]
          
    |psi|^2 = 0.994
==== e(  16) =    -5.70149 eV ==== 
     psi = 0.272*[#  15]+0.228*[#  13]+0.101*[#  34]+0.076*[#  26]+0.063*[#  18]
          +0.060*[#  16]+0.055*[#  10]+0.054*[#  14]+0.023*[#  24]+0.020*[#  11]
          +0.019*[#  27]+0.013*[#  32]+0.002*[#  25]+0.002*[#  33]+0.002*[#  36]
          +0.001*[#  35]+0.001*[#  28]
    |psi|^2 = 0.995
==== e(  17) =    -4.94567 eV ==== 
     psi = 0.223*[#   9]+0.126*[#  36]+0.126*[#  28]+0.093*[#  33]+0.084*[#  25]
          +0.066*[#  17]+0.047*[#  35]+0.045*[#  27]+0.040*[#  18]+0.036*[#  23]
          +0.030*[#  31]+0.018*[#  24]+0.015*[#  32]+0.015*[#  13]+0.008*[#  10]
          +0.008*[#  12]+0.002*[#  20]+0.001*[#  26]+0.001*[#  22]
    |psi|^2 = 0.988
==== e(  18) =    -4.51521 eV ==== 
     psi = 0.267*[#  18]+0.154*[#  23]+0.154*[#  31]+0.060*[#  13]+0.056*[#   9]
          +0.055*[#  17]+0.046*[#  10]+0.036*[#  28]+0.033*[#  35]+0.032*[#  36]
          +0.026*[#  27]+0.024*[#  25]+0.020*[#  33]+0.012*[#  15]+0.005*[#  24]
          +0.004*[#  32]+0.002*[#  26]
    |psi|^2 = 0.988
==== e(  19) =    -4.43445 eV ==== 
     psi = 0.205*[#  13]+0.183*[#  15]+0.159*[#  18]+0.130*[#  35]+0.121*[#  27]
          +0.030*[#  17]+0.027*[#  12]+0.025*[#  10]+0.024*[#  26]+0.012*[#  31]
          +0.012*[#  32]+0.010*[#  36]+0.009*[#  23]+0.008*[#  24]+0.007*[#  20]
          +0.006*[#  25]+0.005*[#  22]+0.004*[#  16]+0.003*[#  34]+0.001*[#  28]
          +0.001*[#  30]
    |psi|^2 = 0.986
==== e(  20) =    -4.31793 eV ==== 
     psi = 0.357*[#  16]+0.257*[#  14]+0.159*[#  11]+0.037*[#  26]+0.029*[#  34]
          +0.028*[#  36]+0.023*[#  28]+0.021*[#  35]+0.015*[#  12]+0.013*[#  32]
          +0.010*[#  13]+0.008*[#  17]+0.006*[#  24]+0.004*[#  23]+0.003*[#  30]
          +0.003*[#  20]+0.003*[#  10]+0.003*[#  27]+0.003*[#  15]+0.002*[#  25]
          +0.002*[#  19]+0.002*[#  33]
    |psi|^2 = 0.988
==== e(  21) =    -4.10688 eV ==== 
     psi = 0.358*[#  28]+0.353*[#  36]+0.072*[#  15]+0.047*[#  11]+0.031*[#  14]
          +0.016*[#  10]+0.015*[#  13]+0.014*[#  33]+0.011*[#  31]+0.009*[#  34]
          +0.009*[#  32]+0.008*[#  24]+0.008*[#  17]+0.008*[#  19]+0.007*[#  25]
          +0.005*[#  35]+0.003*[#  29]+0.003*[#  23]+0.003*[#  21]+0.002*[#  12]
          +0.002*[#  18]+0.001*[#  16]+0.001*[#  22]
    |psi|^2 = 0.987
==== e(  22) =    -4.00093 eV ==== 
     psi = 0.201*[#  12]+0.183*[#  13]+0.182*[#  17]+0.068*[#  15]+0.067*[#  27]
          +0.053*[#  35]+0.044*[#  10]+0.040*[#  14]+0.021*[#  20]+0.021*[#  28]
          +0.020*[#  16]+0.015*[#  11]+0.013*[#  31]+0.011*[#  25]+0.010*[#  23]
          +0.008*[#  26]+0.007*[#  30]+0.006*[#   9]+0.005*[#  22]+0.005*[#  18]
          +0.005*[#  34]+0.003*[#  36]+0.002*[#  33]
    |psi|^2 = 0.990
==== e(  23) =    -3.69149 eV ==== 
     psi = 0.206*[#  17]+0.193*[#  27]+0.188*[#  35]+0.100*[#  12]+0.068*[#  13]
          +0.044*[#   9]+0.040*[#  25]+0.030*[#  23]+0.027*[#  15]+0.027*[#  33]
          +0.021*[#  32]+0.019*[#  24]+0.006*[#  34]+0.006*[#  10]+0.004*[#  20]
          +0.002*[#  16]+0.002*[#  31]
    |psi|^2 = 0.989
==== e(  24) =    -3.47026 eV ==== 
     psi = 0.191*[#  12]+0.150*[#  33]+0.089*[#  25]+0.088*[#  17]+0.088*[#  11]
          +0.083*[#  31]+0.070*[#  23]+0.064*[#   9]+0.039*[#  10]+0.033*[#  16]
          +0.015*[#  19]+0.011*[#  27]+0.011*[#  28]+0.011*[#  32]+0.010*[#  18]
          +0.006*[#  13]+0.006*[#  36]+0.006*[#  21]+0.004*[#  29]+0.004*[#  34]
          +0.002*[#  15]+0.001*[#  22]
    |psi|^2 = 0.985
==== e(  25) =    -3.36690 eV ==== 
     psi = 0.298*[#  10]+0.145*[#  12]+0.138*[#  25]+0.079*[#  33]+0.077*[#  17]
          +0.072*[#   9]+0.065*[#  18]+0.039*[#  31]+0.035*[#  15]+0.013*[#  13]
          +0.008*[#  35]+0.006*[#  26]+0.002*[#  36]+0.002*[#  14]+0.001*[#  23]
          +0.001*[#  24]+0.001*[#  27]
    |psi|^2 = 0.985
==== e(  26) =    -3.22206 eV ==== 
     psi = 0.278*[#  11]+0.147*[#  16]+0.125*[#  10]+0.076*[#   9]+0.073*[#  18]
          +0.071*[#  17]+0.040*[#  12]+0.031*[#  15]+0.018*[#  19]+0.015*[#  31]
          +0.015*[#  24]+0.015*[#  25]+0.013*[#  13]+0.010*[#  33]+0.010*[#  34]
          +0.008*[#  14]+0.008*[#  35]+0.008*[#  26]+0.007*[#  27]+0.005*[#  29]
          +0.004*[#  21]+0.002*[#  28]+0.002*[#  36]+0.001*[#  32]
    |psi|^2 = 0.985
==== e(  27) =    -3.01904 eV ==== 
     psi = 0.376*[#  32]+0.214*[#  24]+0.125*[#  26]+0.075*[#  12]+0.030*[#  34]
          +0.028*[#  14]+0.027*[#  15]+0.019*[#  36]+0.012*[#  35]+0.009*[#  11]
          +0.009*[#  28]+0.009*[#  31]+0.009*[#  23]+0.007*[#  20]+0.006*[#  13]
          +0.006*[#  17]+0.006*[#  25]+0.003*[#  30]+0.003*[#  22]+0.002*[#   9]
          +0.002*[#  10]+0.002*[#  27]+0.002*[#  33]+0.002*[#  21]+0.001*[#  18]
          
    |psi|^2 = 0.986
==== e(  28) =    -2.87374 eV ==== 
     psi = 0.189*[#  34]+0.186*[#  24]+0.150*[#  14]+0.120*[#  27]+0.060*[#  25]
          +0.050*[#  35]+0.040*[#  10]+0.034*[#  26]+0.031*[#  11]+0.029*[#  18]
          +0.019*[#  33]+0.015*[#  32]+0.014*[#  28]+0.011*[#  16]+0.008*[#  12]
          +0.007*[#  31]+0.004*[#  36]+0.003*[#   9]+0.003*[#  15]+0.003*[#  13]
          +0.002*[#  19]+0.002*[#  29]+0.001*[#  23]
    |psi|^2 = 0.983
==== e(  29) =    -2.75601 eV ==== 
     psi = 0.176*[#  33]+0.150*[#  11]+0.125*[#  25]+0.082*[#  24]+0.082*[#  34]
          +0.065*[#  16]+0.050*[#  18]+0.040*[#  28]+0.040*[#  36]+0.039*[#  15]
          +0.032*[#  10]+0.032*[#  14]+0.026*[#  26]+0.018*[#  31]+0.012*[#  13]
          +0.011*[#  23]+0.002*[#  32]+0.002*[#  30]+0.001*[#  12]
    |psi|^2 = 0.986
==== e(  30) =    -2.44282 eV ==== 
     psi = 0.345*[#  23]+0.257*[#  31]+0.139*[#   9]+0.053*[#  33]+0.048*[#  11]
          +0.037*[#  36]+0.014*[#  34]+0.012*[#  24]+0.011*[#  26]+0.010*[#  35]
          +0.009*[#  16]+0.009*[#  18]+0.008*[#  17]+0.006*[#  12]+0.005*[#  25]
          +0.004*[#  27]+0.003*[#  19]+0.003*[#  21]+0.002*[#  14]
    |psi|^2 = 0.981
==== e(  31) =    -2.31691 eV ==== 
     psi = 0.329*[#  26]+0.164*[#  32]+0.125*[#  35]+0.102*[#  14]+0.076*[#  34]
          +0.061*[#  16]+0.035*[#  27]+0.014*[#  23]+0.013*[#  25]+0.012*[#  24]
          +0.011*[#  15]+0.010*[#  31]+0.008*[#  11]+0.007*[#  13]+0.005*[#  22]
          +0.005*[#   9]+0.004*[#  12]+0.004*[#  10]+0.002*[#  18]+0.002*[#  20]
          
    |psi|^2 = 0.990
==== e(  32) =    -1.93717 eV ==== 
     psi = 0.392*[#  34]+0.234*[#  26]+0.109*[#  15]+0.062*[#  24]+0.056*[#  27]
          +0.052*[#  13]+0.036*[#  10]+0.020*[#  14]+0.009*[#  16]+0.006*[#  18]
          +0.004*[#  35]+0.002*[#  31]+0.002*[#  11]+0.002*[#  30]
    |psi|^2 = 0.990
==== e(  33) =    -1.23986 eV ==== 
     psi = 0.251*[#   9]+0.134*[#  31]+0.127*[#  17]+0.115*[#  28]+0.089*[#  12]
          +0.081*[#  25]+0.052*[#  36]+0.035*[#  18]+0.034*[#  10]+0.027*[#  33]
          +0.009*[#  13]+0.008*[#  32]+0.006*[#  15]+0.005*[#  29]+0.002*[#  24]
          +0.002*[#  23]+0.002*[#  21]
    |psi|^2 = 0.983
==== e(  34) =    -0.89736 eV ==== 
     psi = 0.261*[#  23]+0.162*[#  18]+0.154*[#  10]+0.150*[#  31]+0.053*[#  36]
          +0.046*[#  13]+0.041*[#   9]+0.039*[#  33]+0.032*[#  15]+0.022*[#  17]
          +0.015*[#  12]+0.005*[#  28]+0.002*[#  21]+0.001*[#  25]
    |psi|^2 = 0.985
==== e(  35) =     2.15062 eV ==== 
     psi = 0.320*[#  20]+0.038*[#  30]+0.038*[#  22]+0.029*[#  33]+0.029*[#  25]
          +0.011*[#  26]+0.010*[#  28]+0.010*[#  36]+0.009*[#  34]+0.004*[#  35]
          +0.004*[#  27]+0.003*[#  32]+0.003*[#  24]
    |psi|^2 = 0.508
==== e(  36) =     2.27334 eV ==== 
     psi = 0.286*[#  19]+0.035*[#  21]+0.034*[#  29]+0.026*[#  24]+0.026*[#  32]
          +0.010*[#  31]+0.009*[#  27]+0.009*[#  35]+0.009*[#  23]+0.004*[#  28]
          +0.004*[#  36]+0.003*[#  25]+0.003*[#  33]
    |psi|^2 = 0.459
==== e(  37) =     2.78885 eV ==== 
 
    |psi|^2 = 0.002
==== e(  38) =     2.86672 eV ==== 
 
    |psi|^2 = 0.003
==== e(  39) =     3.10739 eV ==== 
     psi = 0.010*[#  20]+0.007*[#  35]+0.006*[#  19]+0.004*[#  30]+0.002*[#  34]
          +0.002*[#  33]+0.002*[#  26]+0.002*[#  36]+0.001*[#  32]
    |psi|^2 = 0.040
==== e(  40) =     3.16828 eV ==== 
     psi = 0.144*[#  20]+0.018*[#  22]+0.015*[#  26]+0.015*[#  30]+0.010*[#  33]
          +0.010*[#  28]+0.007*[#  25]+0.004*[#  36]+0.004*[#  27]+0.003*[#  35]
          +0.003*[#  34]+0.003*[#  32]+0.002*[#  12]+0.002*[#  19]
    |psi|^2 = 0.245

Lowdin Charges: 

     Atom #   1: total charge =  17.3682, s =  2.6500, 
     Atom #   1: total charge =  17.3682, p =  5.9999, 
     Atom #   1: total charge =  17.3682, d =  8.7184, 
     Atom #   2: total charge =   7.1953, s =  1.9408, 
     Atom #   2: total charge =   7.1953, p =  5.2545, 
     Atom #   2: total charge =   7.1953, d =  0.0000, 
     Atom #   3: total charge =   7.1953, s =  1.9408, 
     Atom #   3: total charge =   7.1953, p =  5.2545, 
     Atom #   3: total charge =   7.1953, d =  0.0000, 
     Spilling Parameter:   0.0075
 
     PROJWFC      :     12.37s CPU     19.49s WALL

 
   This run was terminated on:  15:43:24  27Jun2023            

=------------------------------------------------------------------------------=
   JOB DONE.
=------------------------------------------------------------------------------=
