
     Program PWSCF v.6.8 starts on  8Mar2023 at 17: 5:57 

     This program is part of the open-source Quantum ESPRESSO suite
     for quantum simulation of materials; please cite
         "P. Giannozzi et al., J. Phys.:Condens. Matter 21 395502 (2009);
         "P. Giannozzi et al., J. Phys.:Condens. Matter 29 465901 (2017);
         "P. Giannozzi et al., J. Chem. Phys. 152 154105 (2020);
          URL http://www.quantum-espresso.org", 
     in publications or presentations arising from this work. More details at
     http://www.quantum-espresso.org/quote

     Parallel version (MPI & OpenMP), running on      80 processor cores
     Number of MPI processes:                80
     Threads/MPI process:                     1

     MPI processes distributed on     2 nodes
     R & G space division:  proc/nbgrp/npool/nimage =      80
     183283 MiB available memory on the printing compute node when the environment starts
 
     Reading input from nscf.in

     Current dimensions of program PWSCF are:
     Max number of different atomic species (ntypx) = 10
     Max number of k-points (npk) =  40000
     Max angular momentum in pseudopotentials (lmaxx) =  4

     Atomic positions and unit cell read from directory:
     ./tmp/nnso.save/
     Atomic positions from file used, from input discarded
 

     Fixed quantization axis for GGA:     0.000000    0.000000    1.000000
     Message from routine setup:
     using ibrav=0 with symmetry is DISCOURAGED, use correct ibrav instead

     Subspace diagonalization in iterative solution of the eigenvalue problem:
     a serial algorithm will be used

 
     Parallelization info
     --------------------
     sticks:   dense  smooth     PW     G-vecs:    dense   smooth      PW
     Min          23      22      6                 5111     4806     684
     Max          24      23      7                 5135     4845     709
     Sum        1879    1789    499               409943   385631   55807
 
     Using Slab Decomposition
 


     bravais-lattice index     =            0
     lattice parameter (alat)  =       7.3605  a.u.
     unit-cell volume          =    2170.2486 (a.u.)^3
     number of atoms/cell      =            3
     number of atomic types    =            2
     number of electrons       =        32.00
     number of Kohn-Sham states=           40
     kinetic-energy cutoff     =     120.0000  Ry
     charge density cutoff     =     500.0000  Ry
     Exchange-correlation= PBE
                           (   1   4   3   4   0   0   0)
     Noncollinear calculation without spin-orbit


     celldm(1)=   7.360481  celldm(2)=   0.000000  celldm(3)=   0.000000
     celldm(4)=   0.000000  celldm(5)=   0.000000  celldm(6)=   0.000000

     crystal axes: (cart. coord. in units of alat)
               a(1) = (   1.000000   0.000000   0.000000 )  
               a(2) = (  -0.500000   0.866025   0.000000 )  
               a(3) = (   0.000000   0.000000   6.284350 )  

     reciprocal axes: (cart. coord. in units 2 pi/alat)
               b(1) = (  1.000000  0.577350  0.000000 )  
               b(2) = (  0.000000  1.154701  0.000000 )  
               b(3) = (  0.000000  0.000000  0.159125 )  


     PseudoPot. # 1 for Ni read from file:
     pseudo/Ni.upf
     MD5 check sum: 14a7e289c5fff9cacaba393040e62f02
     Pseudo is Norm-conserving + core correction, Zval = 18.0
     Generated using ONCVPSP code by D. R. Hamann
     Using radial grid of 1372 points,  6 beta functions with: 
                l(1) =   0
                l(2) =   0
                l(3) =   1
                l(4) =   1
                l(5) =   2
                l(6) =   2

     PseudoPot. # 2 for I  read from file:
     pseudo/I.upf
     MD5 check sum: 301f7009ca0a2b18b0adf53dca02d42f
     Pseudo is Norm-conserving + core correction, Zval =  7.0
     Generated using ONCVPSP code by D. R. Hamann
     Using radial grid of 1210 points,  6 beta functions with: 
                l(1) =   0
                l(2) =   0
                l(3) =   1
                l(4) =   1
                l(5) =   2
                l(6) =   2

     atomic species   valence    mass     pseudopotential
        Ni            18.00    58.69340     Ni( 1.00)
        I              7.00   126.90447     I ( 1.00)

     12 Sym. Ops., with inversion, found


                                    s                        frac. trans.

      isym =  1     identity                                     

 Time Reversal            0
 cryst.   s( 1) = (     1          0          0      )
                  (     0          1          0      )
                  (     0          0          1      )

 cart.    s( 1) = (  1.0000000 -0.0000000  0.0000000 )
                  (  0.0000000  1.0000000  0.0000000 )
                  (  0.0000000  0.0000000  1.0000000 )


      isym =  2     180 deg rotation - cart. axis [1,0,0]        

 Time Reversal            1
 cryst.   s( 2) = (     1          0          0      )
                  (    -1         -1          0      )
                  (     0          0         -1      )

 cart.    s( 2) = (  1.0000000  0.0000000  0.0000000 )
                  (  0.0000000 -1.0000000  0.0000000 )
                  (  0.0000000  0.0000000 -1.0000000 )


      isym =  3     120 deg rotation - cryst. axis [0,0,1]       

 Time Reversal            0
 cryst.   s( 3) = (     0          1          0      )
                  (    -1         -1          0      )
                  (     0          0          1      )

 cart.    s( 3) = ( -0.5000000 -0.8660254  0.0000000 )
                  (  0.8660254 -0.5000000  0.0000000 )
                  (  0.0000000  0.0000000  1.0000000 )


      isym =  4     120 deg rotation - cryst. axis [0,0,-1]      

 Time Reversal            0
 cryst.   s( 4) = (    -1         -1          0      )
                  (     1          0          0      )
                  (     0          0          1      )

 cart.    s( 4) = ( -0.5000000  0.8660254  0.0000000 )
                  ( -0.8660254 -0.5000000  0.0000000 )
                  (  0.0000000  0.0000000  1.0000000 )


      isym =  5     180 deg rotation - cryst. axis [0,1,0]       

 Time Reversal            1
 cryst.   s( 5) = (    -1         -1          0      )
                  (     0          1          0      )
                  (     0          0         -1      )

 cart.    s( 5) = ( -0.5000000 -0.8660254  0.0000000 )
                  ( -0.8660254  0.5000000  0.0000000 )
                  (  0.0000000  0.0000000 -1.0000000 )


      isym =  6     180 deg rotation - cryst. axis [1,1,0]       

 Time Reversal            1
 cryst.   s( 6) = (     0          1          0      )
                  (     1          0          0      )
                  (     0          0         -1      )

 cart.    s( 6) = ( -0.5000000  0.8660254  0.0000000 )
                  (  0.8660254  0.5000000  0.0000000 )
                  (  0.0000000  0.0000000 -1.0000000 )


      isym =  7     inversion                                    

 Time Reversal            0
 cryst.   s( 7) = (    -1          0          0      )
                  (     0         -1          0      )
                  (     0          0         -1      )

 cart.    s( 7) = ( -1.0000000  0.0000000  0.0000000 )
                  (  0.0000000 -1.0000000  0.0000000 )
                  (  0.0000000  0.0000000 -1.0000000 )


      isym =  8     inv. 180 deg rotation - cart. axis [1,0,0]   

 Time Reversal            1
 cryst.   s( 8) = (    -1          0          0      )
                  (     1          1          0      )
                  (     0          0          1      )

 cart.    s( 8) = ( -1.0000000 -0.0000000  0.0000000 )
                  (  0.0000000  1.0000000  0.0000000 )
                  (  0.0000000  0.0000000  1.0000000 )


      isym =  9     inv. 120 deg rotation - cryst. axis [0,0,1]  

 Time Reversal            0
 cryst.   s( 9) = (     0         -1          0      )
                  (     1          1          0      )
                  (     0          0         -1      )

 cart.    s( 9) = (  0.5000000  0.8660254  0.0000000 )
                  ( -0.8660254  0.5000000  0.0000000 )
                  (  0.0000000  0.0000000 -1.0000000 )


      isym = 10     inv. 120 deg rotation - cryst. axis [0,0,-1] 

 Time Reversal            0
 cryst.   s(10) = (     1          1          0      )
                  (    -1          0          0      )
                  (     0          0         -1      )

 cart.    s(10) = (  0.5000000 -0.8660254  0.0000000 )
                  (  0.8660254  0.5000000  0.0000000 )
                  (  0.0000000  0.0000000 -1.0000000 )


      isym = 11     inv. 180 deg rotation - cryst. axis [0,1,0]  

 Time Reversal            1
 cryst.   s(11) = (     1          1          0      )
                  (     0         -1          0      )
                  (     0          0          1      )

 cart.    s(11) = (  0.5000000  0.8660254  0.0000000 )
                  (  0.8660254 -0.5000000  0.0000000 )
                  (  0.0000000  0.0000000  1.0000000 )


      isym = 12     inv. 180 deg rotation - cryst. axis [1,1,0]  

 Time Reversal            1
 cryst.   s(12) = (     0         -1          0      )
                  (    -1          0          0      )
                  (     0          0          1      )

 cart.    s(12) = (  0.5000000 -0.8660254  0.0000000 )
                  ( -0.8660254 -0.5000000  0.0000000 )
                  (  0.0000000  0.0000000  1.0000000 )


   Cartesian axes

     site n.     atom                  positions (alat units)
         1           Ni  tau(   1) = (   0.0000000   0.0000000   3.1421749  )
         2           I   tau(   2) = (  -0.0000000   0.5773503   3.5289144  )
         3           I   tau(   3) = (   0.5000000   0.2886751   2.7554354  )

   Crystallographic axes

     site n.     atom                  positions (cryst. coord.)
         1           Ni  tau(   1) = (  0.0000000  0.0000000  0.5000000  )
         2           I   tau(   2) = (  0.3333333  0.6666667  0.5615401  )
         3           I   tau(   3) = (  0.6666667  0.3333333  0.4384599  )

     number of k points=    30  Marzari-Vanderbilt smearing, width (Ry)=  0.0015
                       cart. coord. in units 2pi/alat
        k(    1) = (   0.0000000   0.0000000   0.0000000), wk =   0.0039062
        k(    2) = (   0.0000000   0.0721688   0.0000000), wk =   0.0234375
        k(    3) = (   0.0000000   0.1443376   0.0000000), wk =   0.0234375
        k(    4) = (   0.0000000   0.2165064   0.0000000), wk =   0.0234375
        k(    5) = (   0.0000000   0.2886751   0.0000000), wk =   0.0234375
        k(    6) = (   0.0000000   0.3608439   0.0000000), wk =   0.0234375
        k(    7) = (   0.0000000   0.4330127   0.0000000), wk =   0.0234375
        k(    8) = (   0.0000000   0.5051815   0.0000000), wk =   0.0234375
        k(    9) = (   0.0000000  -0.5773503   0.0000000), wk =   0.0117188
        k(   10) = (   0.0625000   0.1082532   0.0000000), wk =   0.0234375
        k(   11) = (   0.0625000   0.1804220   0.0000000), wk =   0.0468750
        k(   12) = (   0.0625000   0.2525907   0.0000000), wk =   0.0468750
        k(   13) = (   0.0625000   0.3247595   0.0000000), wk =   0.0468750
        k(   14) = (   0.0625000   0.3969283   0.0000000), wk =   0.0468750
        k(   15) = (   0.0625000   0.4690971   0.0000000), wk =   0.0468750
        k(   16) = (   0.0625000   0.5412659   0.0000000), wk =   0.0468750
        k(   17) = (   0.1250000   0.2165064   0.0000000), wk =   0.0234375
        k(   18) = (   0.1250000   0.2886751   0.0000000), wk =   0.0468750
        k(   19) = (   0.1250000   0.3608439   0.0000000), wk =   0.0468750
        k(   20) = (   0.1250000   0.4330127   0.0000000), wk =   0.0468750
        k(   21) = (   0.1250000   0.5051815   0.0000000), wk =   0.0468750
        k(   22) = (   0.1250000   0.5773503   0.0000000), wk =   0.0234375
        k(   23) = (   0.1875000   0.3247595   0.0000000), wk =   0.0234375
        k(   24) = (   0.1875000   0.3969283   0.0000000), wk =   0.0468750
        k(   25) = (   0.1875000   0.4690971   0.0000000), wk =   0.0468750
        k(   26) = (   0.1875000   0.5412659   0.0000000), wk =   0.0468750
        k(   27) = (   0.2500000   0.4330127   0.0000000), wk =   0.0234375
        k(   28) = (   0.2500000   0.5051815   0.0000000), wk =   0.0468750
        k(   29) = (   0.2500000   0.5773503   0.0000000), wk =   0.0234375
        k(   30) = (   0.3125000   0.5412659   0.0000000), wk =   0.0234375

                       cryst. coord.
        k(    1) = (   0.0000000   0.0000000   0.0000000), wk =   0.0039062
        k(    2) = (   0.0000000   0.0625000   0.0000000), wk =   0.0234375
        k(    3) = (   0.0000000   0.1250000   0.0000000), wk =   0.0234375
        k(    4) = (   0.0000000   0.1875000   0.0000000), wk =   0.0234375
        k(    5) = (   0.0000000   0.2500000   0.0000000), wk =   0.0234375
        k(    6) = (   0.0000000   0.3125000   0.0000000), wk =   0.0234375
        k(    7) = (   0.0000000   0.3750000   0.0000000), wk =   0.0234375
        k(    8) = (   0.0000000   0.4375000   0.0000000), wk =   0.0234375
        k(    9) = (   0.0000000  -0.5000000   0.0000000), wk =   0.0117188
        k(   10) = (   0.0625000   0.0625000   0.0000000), wk =   0.0234375
        k(   11) = (   0.0625000   0.1250000   0.0000000), wk =   0.0468750
        k(   12) = (   0.0625000   0.1875000   0.0000000), wk =   0.0468750
        k(   13) = (   0.0625000   0.2500000   0.0000000), wk =   0.0468750
        k(   14) = (   0.0625000   0.3125000   0.0000000), wk =   0.0468750
        k(   15) = (   0.0625000   0.3750000   0.0000000), wk =   0.0468750
        k(   16) = (   0.0625000   0.4375000   0.0000000), wk =   0.0468750
        k(   17) = (   0.1250000   0.1250000   0.0000000), wk =   0.0234375
        k(   18) = (   0.1250000   0.1875000   0.0000000), wk =   0.0468750
        k(   19) = (   0.1250000   0.2500000   0.0000000), wk =   0.0468750
        k(   20) = (   0.1250000   0.3125000   0.0000000), wk =   0.0468750
        k(   21) = (   0.1250000   0.3750000   0.0000000), wk =   0.0468750
        k(   22) = (   0.1250000   0.4375000   0.0000000), wk =   0.0234375
        k(   23) = (   0.1875000   0.1875000   0.0000000), wk =   0.0234375
        k(   24) = (   0.1875000   0.2500000   0.0000000), wk =   0.0468750
        k(   25) = (   0.1875000   0.3125000   0.0000000), wk =   0.0468750
        k(   26) = (   0.1875000   0.3750000   0.0000000), wk =   0.0468750
        k(   27) = (   0.2500000   0.2500000   0.0000000), wk =   0.0234375
        k(   28) = (   0.2500000   0.3125000   0.0000000), wk =   0.0468750
        k(   29) = (   0.2500000   0.3750000   0.0000000), wk =   0.0234375
        k(   30) = (   0.3125000   0.3125000   0.0000000), wk =   0.0234375

     Dense  grid:   409943 G-vectors     FFT dimensions: (  54,  54, 360)

     Smooth grid:   385631 G-vectors     FFT dimensions: (  54,  54, 324)

     Dynamical RAM for                 wfc:       0.73 MB

     Dynamical RAM for     wfc (w. buffer):       0.73 MB

     Dynamical RAM for           str. fact:       0.16 MB

     Dynamical RAM for           local pot:       0.00 MB

     Dynamical RAM for          nlocal pot:       0.50 MB

     Dynamical RAM for                qrad:       3.59 MB

     Dynamical RAM for          rho,v,vnew:       2.27 MB

     Dynamical RAM for           G-vectors:       0.33 MB

     Dynamical RAM for          h,s,v(r/c):       0.29 MB

     Dynamical RAM for          <psi|beta>:       0.07 MB

     Dynamical RAM for                 psi:       1.47 MB

     Dynamical RAM for                hpsi:       1.47 MB

     Dynamical RAM for      wfcinit/wfcrot:       1.14 MB

     Estimated static dynamical RAM per process >       8.70 MB

     Estimated max dynamical RAM per process >      12.00 MB

     Estimated total dynamical RAM >     959.88 MB
     Generating pointlists ...
     new r_m :   0.2867 (alat units)  2.1099 (a.u.) for type    1
     new r_m :   0.2867 (alat units)  2.1099 (a.u.) for type    2

     The potential is recalculated from file :
     ./tmp/nnso.save/charge-density

     Starting wfcs are   36 randomized atomic wfcs +    4 random wfcs

     Band Structure Calculation
     Davidson diagonalization with overlap

     Computing kpt #:     1  of    30
     total cpu time spent up to now is        3.0 secs

     Computing kpt #:     2  of    30
     total cpu time spent up to now is        4.2 secs

     Computing kpt #:     3  of    30
     total cpu time spent up to now is        5.6 secs

     Computing kpt #:     4  of    30
     total cpu time spent up to now is        6.7 secs

     Computing kpt #:     5  of    30
     total cpu time spent up to now is        7.9 secs

     Computing kpt #:     6  of    30
     total cpu time spent up to now is        9.1 secs

     Computing kpt #:     7  of    30
     total cpu time spent up to now is       10.3 secs

     Computing kpt #:     8  of    30
     total cpu time spent up to now is       11.4 secs

     Computing kpt #:     9  of    30
     total cpu time spent up to now is       12.4 secs

     Computing kpt #:    10  of    30
     total cpu time spent up to now is       14.7 secs

     Computing kpt #:    11  of    30
     total cpu time spent up to now is       15.9 secs

     Computing kpt #:    12  of    30
     total cpu time spent up to now is       17.1 secs

     Computing kpt #:    13  of    30
     total cpu time spent up to now is       18.5 secs

     Computing kpt #:    14  of    30
     total cpu time spent up to now is       19.7 secs

     Computing kpt #:    15  of    30
     total cpu time spent up to now is       20.8 secs

     Computing kpt #:    16  of    30
     total cpu time spent up to now is       21.9 secs

     Computing kpt #:    17  of    30
     total cpu time spent up to now is       23.1 secs

     Computing kpt #:    18  of    30
     total cpu time spent up to now is       24.2 secs

     Computing kpt #:    19  of    30
     total cpu time spent up to now is       25.3 secs

     Computing kpt #:    20  of    30
     total cpu time spent up to now is       26.5 secs

     Computing kpt #:    21  of    30
     total cpu time spent up to now is       27.7 secs

     Computing kpt #:    22  of    30
     total cpu time spent up to now is       29.4 secs

     Computing kpt #:    23  of    30
     total cpu time spent up to now is       30.5 secs

     Computing kpt #:    24  of    30
     total cpu time spent up to now is       31.7 secs

     Computing kpt #:    25  of    30
     total cpu time spent up to now is       32.8 secs

     Computing kpt #:    26  of    30
     total cpu time spent up to now is       34.0 secs

     Computing kpt #:    27  of    30
     total cpu time spent up to now is       35.2 secs

     Computing kpt #:    28  of    30
     total cpu time spent up to now is       36.3 secs

     Computing kpt #:    29  of    30
     total cpu time spent up to now is       37.3 secs

     Computing kpt #:    30  of    30
     total cpu time spent up to now is       38.4 secs

     ethr =  3.12E-09,  avg # of iterations = 35.4

     total cpu time spent up to now is       38.4 secs

     End of band structure calculation

          k = 0.0000 0.0000 0.0000 ( 48107 PWs)   bands (ev):

  -106.0000-104.6294 -66.4737 -66.4202 -66.4202 -64.9643 -64.9533 -64.9533
   -15.7957 -15.5709 -14.8536 -14.5973  -6.8626  -6.6435  -5.8184  -5.8184
    -4.5714  -4.5714  -4.2860  -4.2860  -3.9200  -3.7917  -3.5491  -3.3456
    -3.3456  -3.1854  -2.8816  -2.8816  -2.6293  -2.6293  -1.9856  -1.9856
    -0.8908  -0.8908   1.7664   1.8990   2.5044   2.6093   2.6844   2.7576

     occupation numbers 
     1.0000   1.0000   1.0000   1.0000   1.0000   1.0000   1.0000   1.0000
     1.0000   1.0000   1.0000   1.0000   1.0000   1.0000   1.0000   1.0000
     1.0000   1.0000   1.0000   1.0000   1.0000   1.0000   1.0000   1.0000
     1.0000   1.0000   1.0000   1.0000   1.0000   1.0000   1.0000   1.0000
     0.0000   0.0000   0.0000   0.0000   0.0000   0.0000   0.0000   0.0000

          k = 0.0000 0.0722 0.0000 ( 48113 PWs)   bands (ev):

  -106.0000-104.6294 -66.4737 -66.4203 -66.4202 -64.9643 -64.9533 -64.9533
   -15.7654 -15.5401 -14.8369 -14.5801  -6.8314  -6.6130  -5.8577  -5.8151
    -4.6861  -4.5682  -4.3328  -4.3037  -3.9623  -3.7402  -3.4826  -3.4310
    -3.3972  -3.2510  -3.0398  -2.9187  -2.7045  -2.6361  -2.1615  -2.0114
    -1.0453  -0.9134   1.9117   2.0424   2.7034   2.7540   2.7919   2.8582

     occupation numbers 
     1.0000   1.0000   1.0000   1.0000   1.0000   1.0000   1.0000   1.0000
     1.0000   1.0000   1.0000   1.0000   1.0000   1.0000   1.0000   1.0000
     1.0000   1.0000   1.0000   1.0000   1.0000   1.0000   1.0000   1.0000
     1.0000   1.0000   1.0000   1.0000   1.0000   1.0000   1.0000   1.0000
     0.0000   0.0000   0.0000   0.0000   0.0000   0.0000   0.0000   0.0000

          k = 0.0000 0.1443 0.0000 ( 48142 PWs)   bands (ev):

  -106.0000-104.6294 -66.4737 -66.4203 -66.4203 -64.9643 -64.9533 -64.9533
   -15.6764 -15.4497 -14.7892 -14.5309  -6.7434  -6.5275  -5.9630  -5.8059
    -4.9636  -4.5592  -4.5483  -4.3516  -4.0704  -3.8678  -3.6185  -3.5301
    -3.3516  -3.3260  -3.2981  -3.0293  -2.7975  -2.6705  -2.5797  -2.0725
    -1.3603  -0.9656   2.2368   2.3657   2.8212   2.9052   2.9551   3.1006

     occupation numbers 
     1.0000   1.0000   1.0000   1.0000   1.0000   1.0000   1.0000   1.0000
     1.0000   1.0000   1.0000   1.0000   1.0000   1.0000   1.0000   1.0000
     1.0000   1.0000   1.0000   1.0000   1.0000   1.0000   1.0000   1.0000
     1.0000   1.0000   1.0000   1.0000   1.0000   1.0000   1.0000   1.0000
     0.0000   0.0000   0.0000   0.0000   0.0000   0.0000   0.0000   0.0000

          k = 0.0000 0.2165 0.0000 ( 48158 PWs)   bands (ev):

  -106.0000-104.6294 -66.4736 -66.4204 -66.4203 -64.9643 -64.9534 -64.9533
   -15.5351 -15.3060 -14.7177 -14.4570  -6.6222  -6.4124  -6.1098  -5.7935
    -5.3332  -5.0230  -4.5461  -4.4524  -4.4152  -4.1555  -3.7033  -3.5580
    -3.5289  -3.3492  -3.3010  -3.2049  -2.9639  -2.8583  -2.7483  -2.1384
    -1.5902  -1.0183   2.4334   2.6350   2.6707   2.7615   3.0045   3.1041

     occupation numbers 
     1.0000   1.0000   1.0000   1.0000   1.0000   1.0000   1.0000   1.0000
     1.0000   1.0000   1.0000   1.0000   1.0000   1.0000   1.0000   1.0000
     1.0000   1.0000   1.0000   1.0000   1.0000   1.0000   1.0000   1.0000
     1.0000   1.0000   1.0000   1.0000   1.0000   1.0000   1.0000   1.0000
     0.0000   0.0000   0.0000   0.0000   0.0000   0.0000   0.0000   0.0000

          k = 0.0000 0.2887 0.0000 ( 48148 PWs)   bands (ev):

  -106.0000-104.6294 -66.4736 -66.4205 -66.4203 -64.9643 -64.9535 -64.9533
   -15.3529 -15.1204 -14.6347 -14.3710  -6.5561  -6.3569  -6.2787  -5.7815
    -5.7462  -5.5182  -4.9246  -4.5314  -4.4756  -4.2123  -3.9051  -3.8823
    -3.6022  -3.5096  -3.4212  -3.3138  -2.9598  -2.9110  -2.8605  -2.1910
    -1.6137  -1.0547   1.9542   2.1543   2.9323   3.0515   3.2258   3.3371

     occupation numbers 
     1.0000   1.0000   1.0000   1.0000   1.0000   1.0000   1.0000   1.0000
     1.0000   1.0000   1.0000   1.0000   1.0000   1.0000   1.0000   1.0000
     1.0000   1.0000   1.0000   1.0000   1.0000   1.0000   1.0000   1.0000
     1.0000   1.0000   1.0000   1.0000   1.0000   1.0000   1.0000   1.0000
     0.0000   0.0000   0.0000   0.0000   0.0000   0.0000   0.0000   0.0000

          k = 0.0000 0.3608 0.0000 ( 48214 PWs)   bands (ev):

  -106.0000-104.6294 -66.4736 -66.4206 -66.4203 -64.9642 -64.9536 -64.9534
   -15.1473 -14.9103 -14.5571 -14.2908  -6.7875  -6.5887  -6.4077  -6.0261
    -5.7732  -5.6969  -5.1113  -4.5177  -4.5145  -4.3658  -4.2040  -4.0425
    -3.7659  -3.6877  -3.6466  -3.3288  -2.9815  -2.9724  -2.7974  -2.2277
    -1.4984  -1.0742   1.4911   1.7034   3.0593   3.2063   3.4811   3.6161

     occupation numbers 
     1.0000   1.0000   1.0000   1.0000   1.0000   1.0000   1.0000   1.0000
     1.0000   1.0000   1.0000   1.0000   1.0000   1.0000   1.0000   1.0000
     1.0000   1.0000   1.0000   1.0000   1.0000   1.0000   1.0000   1.0000
     1.0000   1.0000   1.0000   1.0000   1.0000   1.0000   1.0000   1.0000
     0.0000   0.0000   0.0000   0.0000   0.0000   0.0000   0.0000   0.0000

          k = 0.0000 0.4330 0.0000 ( 48212 PWs)   bands (ev):

  -106.0000-104.6294 -66.4736 -66.4206 -66.4203 -64.9642 -64.9537 -64.9534
   -14.9428 -14.7007 -14.5050 -14.2370  -7.1850  -6.9898  -6.5082  -6.2107
    -5.7700  -5.6312  -5.0122  -4.6211  -4.5215  -4.5072  -4.2581  -4.1674
    -4.0280  -3.8516  -3.7897  -3.3398  -3.0853  -3.0518  -2.6524  -2.2511
    -1.3580  -1.0830   1.1369   1.3662   3.0534   3.2081   3.4999   3.6681

     occupation numbers 
     1.0000   1.0000   1.0000   1.0000   1.0000   1.0000   1.0000   1.0000
     1.0000   1.0000   1.0000   1.0000   1.0000   1.0000   1.0000   1.0000
     1.0000   1.0000   1.0000   1.0000   1.0000   1.0000   1.0000   1.0000
     1.0000   1.0000   1.0000   1.0000   1.0000   1.0000   1.0000   1.0000
     0.0000   0.0000   0.0000   0.0000   0.0000   0.0000   0.0000   0.0000

          k = 0.0000 0.5052 0.0000 ( 48214 PWs)   bands (ev):

  -106.0000-104.6294 -66.4736 -66.4207 -66.4204 -64.9642 -64.9538 -64.9534
   -14.7730 -14.5264 -14.4935 -14.2250  -7.4829  -7.2884  -6.5818  -6.3570
    -5.7702  -5.5822  -4.7880  -4.6842  -4.5013  -4.5011  -4.2998  -4.2652
    -4.2460  -4.0066  -3.8944  -3.3465  -3.1538  -3.1302  -2.5640  -2.2640
    -1.2601  -1.0864   0.9216   1.1687   2.9931   3.1410   3.5355   3.7178

     occupation numbers 
     1.0000   1.0000   1.0000   1.0000   1.0000   1.0000   1.0000   1.0000
     1.0000   1.0000   1.0000   1.0000   1.0000   1.0000   1.0000   1.0000
     1.0000   1.0000   1.0000   1.0000   1.0000   1.0000   1.0000   1.0000
     1.0000   1.0000   1.0000   1.0000   1.0000   1.0000   1.0000   1.0000
     0.0000   0.0000   0.0000   0.0000   0.0000   0.0000   0.0000   0.0000

          k = 0.0000-0.5774 0.0000 ( 48254 PWs)   bands (ev):

  -106.0000-104.6294 -66.4736 -66.4207 -66.4204 -64.9642 -64.9538 -64.9534
   -14.6956 -14.5052 -14.4476 -14.2362  -7.5900  -7.3956  -6.6086  -6.4123
    -5.7708  -5.5805  -4.6554  -4.6070  -4.4992  -4.4849  -4.4347  -4.3287
    -4.2728  -4.0690  -3.9435  -3.3487  -3.1776  -3.1649  -2.5356  -2.2681
    -1.2269  -1.0872   0.8507   1.1060   2.9589   3.1032   3.6791   3.8303

     occupation numbers 
     1.0000   1.0000   1.0000   1.0000   1.0000   1.0000   1.0000   1.0000
     1.0000   1.0000   1.0000   1.0000   1.0000   1.0000   1.0000   1.0000
     1.0000   1.0000   1.0000   1.0000   1.0000   1.0000   1.0000   1.0000
     1.0000   1.0000   1.0000   1.0000   1.0000   1.0000   1.0000   1.0000
     0.0000   0.0000   0.0000   0.0000   0.0000   0.0000   0.0000   0.0000

          k = 0.0625 0.1083 0.0000 ( 48119 PWs)   bands (ev):

  -106.0000-104.6294 -66.4737 -66.4203 -66.4203 -64.9643 -64.9533 -64.9533
   -15.7057 -15.4795 -14.8047 -14.5469  -6.7716  -6.5548  -5.9281  -5.8108
    -4.8743  -4.5666  -4.4110  -4.3926  -4.0368  -3.7130  -3.6529  -3.5086
    -3.3742  -3.2881  -3.2476  -3.0249  -2.7754  -2.6635  -2.3871  -2.1040
    -1.2406  -0.9859   2.1455   2.2737   2.7898   2.8715   3.1087   3.1642

     occupation numbers 
     1.0000   1.0000   1.0000   1.0000   1.0000   1.0000   1.0000   1.0000
     1.0000   1.0000   1.0000   1.0000   1.0000   1.0000   1.0000   1.0000
     1.0000   1.0000   1.0000   1.0000   1.0000   1.0000   1.0000   1.0000
     1.0000   1.0000   1.0000   1.0000   1.0000   1.0000   1.0000   1.0000
     0.0000   0.0000   0.0000   0.0000   0.0000   0.0000   0.0000   0.0000

          k = 0.0625 0.1804 0.0000 ( 48136 PWs)   bands (ev):

  -106.0000-104.6294 -66.4737 -66.4204 -66.4203 -64.9643 -64.9534 -64.9533
   -15.5905 -15.3624 -14.7450 -14.4852  -6.6652  -6.4527  -6.0486  -5.8060
    -5.1762  -4.7531  -4.5702  -4.5040  -4.2311  -4.1063  -3.6757  -3.5457
    -3.4544  -3.3145  -3.3017  -3.2430  -2.8360  -2.7295  -2.6797  -2.2255
    -1.4574  -1.0862   2.4712   2.6064   2.8664   2.9530   2.9866   3.0906

     occupation numbers 
     1.0000   1.0000   1.0000   1.0000   1.0000   1.0000   1.0000   1.0000
     1.0000   1.0000   1.0000   1.0000   1.0000   1.0000   1.0000   1.0000
     1.0000   1.0000   1.0000   1.0000   1.0000   1.0000   1.0000   1.0000
     1.0000   1.0000   1.0000   1.0000   1.0000   1.0000   1.0000   1.0000
     0.0000   0.0000   0.0000   0.0000   0.0000   0.0000   0.0000   0.0000

          k = 0.0625 0.2526 0.0000 ( 48148 PWs)   bands (ev):

  -106.0000-104.6294 -66.4736 -66.4204 -66.4203 -64.9643 -64.9535 -64.9533
   -15.4286 -15.1975 -14.6674 -14.4049  -6.5581  -6.3544  -6.1989  -5.8046
    -5.5510  -5.2696  -4.7738  -4.6075  -4.5637  -4.1392  -3.8655  -3.7247
    -3.5729  -3.4023  -3.3681  -3.3102  -2.8919  -2.8913  -2.8108  -2.2926
    -1.5728  -1.1415   2.3382   2.5472   2.8725   2.9762   3.1181   3.2259

     occupation numbers 
     1.0000   1.0000   1.0000   1.0000   1.0000   1.0000   1.0000   1.0000
     1.0000   1.0000   1.0000   1.0000   1.0000   1.0000   1.0000   1.0000
     1.0000   1.0000   1.0000   1.0000   1.0000   1.0000   1.0000   1.0000
     1.0000   1.0000   1.0000   1.0000   1.0000   1.0000   1.0000   1.0000
     0.0000   0.0000   0.0000   0.0000   0.0000   0.0000   0.0000   0.0000

          k = 0.0625 0.3248 0.0000 ( 48173 PWs)   bands (ev):

  -106.0000-104.6294 -66.4736 -66.4205 -66.4203 -64.9642 -64.9536 -64.9534
   -15.2342 -14.9991 -14.5863 -14.3210  -6.6189  -6.4198  -6.3500  -5.9077
    -5.8051  -5.6200  -5.0857  -4.6963  -4.5771  -4.1705  -4.1037  -4.0510
    -3.6742  -3.6220  -3.5158  -3.3206  -2.9599  -2.8970  -2.8515  -2.3251
    -1.5422  -1.1560   1.8560   2.0697   3.1010   3.2351   3.3894   3.5034

     occupation numbers 
     1.0000   1.0000   1.0000   1.0000   1.0000   1.0000   1.0000   1.0000
     1.0000   1.0000   1.0000   1.0000   1.0000   1.0000   1.0000   1.0000
     1.0000   1.0000   1.0000   1.0000   1.0000   1.0000   1.0000   1.0000
     1.0000   1.0000   1.0000   1.0000   1.0000   1.0000   1.0000   1.0000
     0.0000   0.0000   0.0000   0.0000   0.0000   0.0000   0.0000   0.0000

          k = 0.0625 0.3969 0.0000 ( 48195 PWs)   bands (ev):

  -106.0000-104.6294 -66.4736 -66.4206 -66.4203 -64.9642 -64.9537 -64.9534
   -15.0281 -14.7881 -14.5205 -14.2530  -6.9715  -6.7740  -6.4565  -6.1170
    -5.7833  -5.6568  -5.0959  -4.7564  -4.5842  -4.4677  -4.2224  -4.1578
    -3.8761  -3.8176  -3.6742  -3.3203  -3.0537  -2.9790  -2.7239  -2.3419
    -1.4365  -1.1504   1.4431   1.6681   3.1834   3.3380   3.6112   3.7604

     occupation numbers 
     1.0000   1.0000   1.0000   1.0000   1.0000   1.0000   1.0000   1.0000
     1.0000   1.0000   1.0000   1.0000   1.0000   1.0000   1.0000   1.0000
     1.0000   1.0000   1.0000   1.0000   1.0000   1.0000   1.0000   1.0000
     1.0000   1.0000   1.0000   1.0000   1.0000   1.0000   1.0000   1.0000
     0.0000   0.0000   0.0000   0.0000   0.0000   0.0000   0.0000   0.0000

          k = 0.0625 0.4691 0.0000 ( 48179 PWs)   bands (ev):

  -106.0000-104.6294 -66.4736 -66.4207 -66.4204 -64.9642 -64.9538 -64.9534
   -14.8386 -14.5935 -14.4885 -14.2201  -7.3296  -7.1349  -6.5415  -6.2809
    -5.7761  -5.5883  -4.9217  -4.7794  -4.6580  -4.5721  -4.3736  -4.1588
    -4.1033  -3.9729  -3.7980  -3.3098  -3.1374  -3.0633  -2.6163  -2.3580
    -1.3290  -1.1484   1.1533   1.3931   3.2009   3.3558   3.5989   3.7734

     occupation numbers 
     1.0000   1.0000   1.0000   1.0000   1.0000   1.0000   1.0000   1.0000
     1.0000   1.0000   1.0000   1.0000   1.0000   1.0000   1.0000   1.0000
     1.0000   1.0000   1.0000   1.0000   1.0000   1.0000   1.0000   1.0000
     1.0000   1.0000   1.0000   1.0000   1.0000   1.0000   1.0000   1.0000
     0.0000   0.0000   0.0000   0.0000   0.0000   0.0000   0.0000   0.0000

          k = 0.0625 0.5413 0.0000 ( 48239 PWs)   bands (ev):

  -106.0000-104.6294 -66.4736 -66.4207 -66.4204 -64.9642 -64.9538 -64.9534
   -14.7066 -14.4952 -14.4583 -14.2265  -7.5344  -7.3403  -6.5892  -6.3791
    -5.7707  -5.5733  -4.7835  -4.7391  -4.6792  -4.5334  -4.4612  -4.2987
    -4.1819  -4.0465  -3.8923  -3.2984  -3.1727  -3.1368  -2.5512  -2.3779
    -1.2490  -1.1689   1.0080   1.2601   3.1799   3.3292   3.6929   3.8836

     occupation numbers 
     1.0000   1.0000   1.0000   1.0000   1.0000   1.0000   1.0000   1.0000
     1.0000   1.0000   1.0000   1.0000   1.0000   1.0000   1.0000   1.0000
     1.0000   1.0000   1.0000   1.0000   1.0000   1.0000   1.0000   1.0000
     1.0000   1.0000   1.0000   1.0000   1.0000   1.0000   1.0000   1.0000
     0.0000   0.0000   0.0000   0.0000   0.0000   0.0000   0.0000   0.0000

          k = 0.1250 0.2165 0.0000 ( 48125 PWs)   bands (ev):

  -106.0000-104.6294 -66.4736 -66.4204 -66.4203 -64.9643 -64.9535 -64.9533
   -15.4545 -15.2239 -14.6789 -14.4168  -6.5657  -6.3602  -6.1625  -5.8225
    -5.4514  -5.0534  -4.7940  -4.7350  -4.5707  -4.1050  -3.8904  -3.6553
    -3.5622  -3.3906  -3.3424  -3.3229  -2.8833  -2.7990  -2.6578  -2.5159
    -1.4462  -1.2978   2.6572   2.8774   2.9090   3.0168   3.0421   3.1464

     occupation numbers 
     1.0000   1.0000   1.0000   1.0000   1.0000   1.0000   1.0000   1.0000
     1.0000   1.0000   1.0000   1.0000   1.0000   1.0000   1.0000   1.0000
     1.0000   1.0000   1.0000   1.0000   1.0000   1.0000   1.0000   1.0000
     1.0000   1.0000   1.0000   1.0000   1.0000   1.0000   1.0000   1.0000
     0.0000   0.0000   0.0000   0.0000   0.0000   0.0000   0.0000   0.0000

          k = 0.1250 0.2887 0.0000 ( 48141 PWs)   bands (ev):

  -106.0000-104.6294 -66.4736 -66.4205 -66.4203 -64.9642 -64.9536 -64.9534
   -15.2798 -15.0457 -14.6025 -14.3378  -6.5381  -6.3385  -6.2908  -5.8458
    -5.7658  -5.4286  -5.0893  -4.9821  -4.6528  -4.1079  -4.0970  -3.9683
    -3.6724  -3.5187  -3.4172  -3.3219  -2.9481  -2.8435  -2.8016  -2.5580
    -1.5007  -1.3308   2.3681   2.6005   3.1448   3.2694   3.2708   3.3710

     occupation numbers 
     1.0000   1.0000   1.0000   1.0000   1.0000   1.0000   1.0000   1.0000
     1.0000   1.0000   1.0000   1.0000   1.0000   1.0000   1.0000   1.0000
     1.0000   1.0000   1.0000   1.0000   1.0000   1.0000   1.0000   1.0000
     1.0000   1.0000   1.0000   1.0000   1.0000   1.0000   1.0000   1.0000
     0.0000   0.0000   0.0000   0.0000   0.0000   0.0000   0.0000   0.0000

          k = 0.1250 0.3608 0.0000 ( 48162 PWs)   bands (ev):

  -106.0000-104.6294 -66.4736 -66.4206 -66.4204 -64.9642 -64.9536 -64.9534
   -15.0836 -14.8450 -14.5315 -14.2644  -6.7552  -6.5521  -6.4051  -6.0278
    -5.8249  -5.6131  -5.1871  -5.0884  -4.7249  -4.3094  -4.3066  -4.0842
    -3.8080  -3.7597  -3.5457  -3.3054  -3.0330  -2.9003  -2.8414  -2.5089
    -1.5392  -1.2562   1.9664   2.1985   3.2720   3.4202   3.6688   3.7769

     occupation numbers 
     1.0000   1.0000   1.0000   1.0000   1.0000   1.0000   1.0000   1.0000
     1.0000   1.0000   1.0000   1.0000   1.0000   1.0000   1.0000   1.0000
     1.0000   1.0000   1.0000   1.0000   1.0000   1.0000   1.0000   1.0000
     1.0000   1.0000   1.0000   1.0000   1.0000   1.0000   1.0000   1.0000
     0.0000   0.0000   0.0000   0.0000   0.0000   0.0000   0.0000   0.0000

          k = 0.1250 0.4330 0.0000 ( 48177 PWs)   bands (ev):

  -106.0000-104.6294 -66.4736 -66.4206 -66.4204 -64.9642 -64.9537 -64.9534
   -14.8898 -14.6459 -14.4842 -14.2159  -7.1072  -6.9096  -6.4889  -6.1920
    -5.8037  -5.5904  -5.1530  -5.1082  -4.7464  -4.5952  -4.4866  -4.0619
    -3.9945  -3.9568  -3.6762  -3.2743  -3.1232  -2.9721  -2.7863  -2.4892
    -1.4986  -1.2112   1.6206   1.8583   3.4107   3.5664   3.9406   4.0838

     occupation numbers 
     1.0000   1.0000   1.0000   1.0000   1.0000   1.0000   1.0000   1.0000
     1.0000   1.0000   1.0000   1.0000   1.0000   1.0000   1.0000   1.0000
     1.0000   1.0000   1.0000   1.0000   1.0000   1.0000   1.0000   1.0000
     1.0000   1.0000   1.0000   1.0000   1.0000   1.0000   1.0000   1.0000
     0.0000   0.0000   0.0000   0.0000   0.0000   0.0000   0.0000   0.0000

          k = 0.1250 0.5052 0.0000 ( 48212 PWs)   bands (ev):

  -106.0000-104.6294 -66.4736 -66.4207 -66.4204 -64.9642 -64.9538 -64.9534
   -14.7296 -14.4811 -14.4746 -14.2063  -7.3779  -7.1841  -6.5420  -6.2973
    -5.7821  -5.5508  -5.2159  -5.0606  -4.7262  -4.6314  -4.6114  -4.2082
    -4.0781  -4.0214  -3.7838  -3.2495  -3.1723  -3.0494  -2.7039  -2.5197
    -1.4222  -1.2221   1.3992   1.6466   3.5752   3.7256   3.9807   4.1563

     occupation numbers 
     1.0000   1.0000   1.0000   1.0000   1.0000   1.0000   1.0000   1.0000
     1.0000   1.0000   1.0000   1.0000   1.0000   1.0000   1.0000   1.0000
     1.0000   1.0000   1.0000   1.0000   1.0000   1.0000   1.0000   1.0000
     1.0000   1.0000   1.0000   1.0000   1.0000   1.0000   1.0000   1.0000
     0.0000   0.0000   0.0000   0.0000   0.0000   0.0000   0.0000   0.0000

          k = 0.1250 0.5774 0.0000 ( 48240 PWs)   bands (ev):

  -106.0000-104.6294 -66.4736 -66.4207 -66.4204 -64.9642 -64.9538 -64.9534
   -14.6564 -14.4864 -14.4062 -14.2180  -7.4763  -7.2836  -6.5600  -6.3345
    -5.7583  -5.5615  -5.2474  -5.0600  -4.7390  -4.6583  -4.4482  -4.3972
    -4.1249  -3.9930  -3.8391  -3.2584  -3.1449  -3.1072  -2.6393  -2.5682
    -1.3682  -1.2541   1.3246   1.5772   3.6659   3.8070   4.0168   4.1033

     occupation numbers 
     1.0000   1.0000   1.0000   1.0000   1.0000   1.0000   1.0000   1.0000
     1.0000   1.0000   1.0000   1.0000   1.0000   1.0000   1.0000   1.0000
     1.0000   1.0000   1.0000   1.0000   1.0000   1.0000   1.0000   1.0000
     1.0000   1.0000   1.0000   1.0000   1.0000   1.0000   1.0000   1.0000
     0.0000   0.0000   0.0000   0.0000   0.0000   0.0000   0.0000   0.0000

          k = 0.1875 0.3248 0.0000 ( 48145 PWs)   bands (ev):

  -106.0000-104.6294 -66.4736 -66.4206 -66.4204 -64.9642 -64.9536 -64.9534
   -15.1029 -14.8647 -14.5355 -14.2686  -6.6580  -6.4502  -6.3778  -5.9784
    -5.8519  -5.5206  -5.3078  -5.2626  -4.7735  -4.3475  -4.2273  -4.0631
    -3.8050  -3.7151  -3.4674  -3.3022  -3.0254  -2.9488  -2.8675  -2.5681
    -1.5989  -1.2925   2.3088   2.5578   3.1784   3.3124   3.6710   3.7718

     occupation numbers 
     1.0000   1.0000   1.0000   1.0000   1.0000   1.0000   1.0000   1.0000
     1.0000   1.0000   1.0000   1.0000   1.0000   1.0000   1.0000   1.0000
     1.0000   1.0000   1.0000   1.0000   1.0000   1.0000   1.0000   1.0000
     1.0000   1.0000   1.0000   1.0000   1.0000   1.0000   1.0000   1.0000
     0.0000   0.0000   0.0000   0.0000   0.0000   0.0000   0.0000   0.0000

          k = 0.1875 0.3969 0.0000 ( 48173 PWs)   bands (ev):

  -106.0000-104.6294 -66.4736 -66.4206 -66.4204 -64.9642 -64.9537 -64.9534
   -14.9177 -14.6745 -14.4819 -14.2137  -6.9079  -6.7011  -6.4487  -6.1484
    -5.8576  -5.5681  -5.4440  -5.3168  -4.8178  -4.5621  -4.5144  -4.0330
    -3.9390  -3.9343  -3.5773  -3.2599  -3.1135  -3.0134  -2.9134  -2.5292
    -1.6470  -1.2321   2.0733   2.3201   3.2789   3.4216   4.1233   4.2316

     occupation numbers 
     1.0000   1.0000   1.0000   1.0000   1.0000   1.0000   1.0000   1.0000
     1.0000   1.0000   1.0000   1.0000   1.0000   1.0000   1.0000   1.0000
     1.0000   1.0000   1.0000   1.0000   1.0000   1.0000   1.0000   1.0000
     1.0000   1.0000   1.0000   1.0000   1.0000   1.0000   1.0000   1.0000
     0.0000   0.0000   0.0000   0.0000   0.0000   0.0000   0.0000   0.0000

          k = 0.1875 0.4691 0.0000 ( 48158 PWs)   bands (ev):

  -106.0000-104.6294 -66.4736 -66.4206 -66.4204 -64.9642 -64.9537 -64.9535
   -14.7494 -14.5008 -14.4574 -14.1891  -7.1663  -6.9702  -6.4920  -6.2278
    -5.8726  -5.5588  -5.5043  -5.4106  -4.7606  -4.7447  -4.6949  -4.1355
    -4.0536  -3.9745  -3.6898  -3.2280  -3.1725  -2.9742  -2.9665  -2.5522
    -1.6076  -1.2371   1.8235   2.0701   3.5114   3.6592   4.3881   4.5333

     occupation numbers 
     1.0000   1.0000   1.0000   1.0000   1.0000   1.0000   1.0000   1.0000
     1.0000   1.0000   1.0000   1.0000   1.0000   1.0000   1.0000   1.0000
     1.0000   1.0000   1.0000   1.0000   1.0000   1.0000   1.0000   1.0000
     1.0000   1.0000   1.0000   1.0000   1.0000   1.0000   1.0000   1.0000
     0.0000   0.0000   0.0000   0.0000   0.0000   0.0000   0.0000   0.0000

          k = 0.1875 0.5413 0.0000 ( 48174 PWs)   bands (ev):

  -106.0000-104.6294 -66.4736 -66.4207 -66.4204 -64.9642 -64.9537 -64.9535
   -14.6320 -14.4662 -14.3795 -14.1988  -7.3226  -7.1328  -6.5117  -6.2485
    -5.8056  -5.6618  -5.5146  -5.4992  -4.8709  -4.8318  -4.5204  -4.3179
    -4.0973  -3.9279  -3.7746  -3.2657  -3.1286  -3.0362  -2.8918  -2.6139
    -1.5373  -1.2879   1.6802   1.9302   3.8473   3.9946   4.2692   4.4210

     occupation numbers 
     1.0000   1.0000   1.0000   1.0000   1.0000   1.0000   1.0000   1.0000
     1.0000   1.0000   1.0000   1.0000   1.0000   1.0000   1.0000   1.0000
     1.0000   1.0000   1.0000   1.0000   1.0000   1.0000   1.0000   1.0000
     1.0000   1.0000   1.0000   1.0000   1.0000   1.0000   1.0000   1.0000
     0.0000   0.0000   0.0000   0.0000   0.0000   0.0000   0.0000   0.0000

          k = 0.2500 0.4330 0.0000 ( 48187 PWs)   bands (ev):

  -106.0000-104.6294 -66.4736 -66.4206 -66.4204 -64.9642 -64.9537 -64.9535
   -14.7569 -14.5083 -14.4509 -14.1827  -7.0443  -6.8432  -6.4666  -6.2244
    -6.0003  -5.6252  -5.5574  -5.4949  -4.7956  -4.7719  -4.7239  -4.1094
    -4.0531  -3.9537  -3.6457  -3.2213  -3.1726  -3.0846  -2.9467  -2.5629
    -1.6794  -1.2426   2.0241   2.2738   3.3666   3.5093   4.6343   4.7473

     occupation numbers 
     1.0000   1.0000   1.0000   1.0000   1.0000   1.0000   1.0000   1.0000
     1.0000   1.0000   1.0000   1.0000   1.0000   1.0000   1.0000   1.0000
     1.0000   1.0000   1.0000   1.0000   1.0000   1.0000   1.0000   1.0000
     1.0000   1.0000   1.0000   1.0000   1.0000   1.0000   1.0000   1.0000
     0.0000   0.0000   0.0000   0.0000   0.0000   0.0000   0.0000   0.0000

          k = 0.2500 0.5052 0.0000 ( 48229 PWs)   bands (ev):

  -106.0000-104.6294 -66.4736 -66.4206 -66.4205 -64.9642 -64.9537 -64.9535
   -14.6248 -14.4495 -14.3710 -14.1827  -7.1446  -6.9584  -6.4695  -6.2102
    -6.1374  -5.7888  -5.6488  -5.4708  -5.0092  -4.9759  -4.5657  -4.2589
    -4.0863  -3.8945  -3.7246  -3.2744  -3.1228  -3.0342  -2.9922  -2.6535
    -1.6285  -1.3134   1.9008   2.1469   3.6546   3.8080   4.5529   4.7114

     occupation numbers 
     1.0000   1.0000   1.0000   1.0000   1.0000   1.0000   1.0000   1.0000
     1.0000   1.0000   1.0000   1.0000   1.0000   1.0000   1.0000   1.0000
     1.0000   1.0000   1.0000   1.0000   1.0000   1.0000   1.0000   1.0000
     1.0000   1.0000   1.0000   1.0000   1.0000   1.0000   1.0000   1.0000
     0.0000   0.0000   0.0000   0.0000   0.0000   0.0000   0.0000   0.0000

          k = 0.2500 0.5774 0.0000 ( 48231 PWs)   bands (ev):

  -106.0000-104.6294 -66.4736 -66.4206 -66.4205 -64.9642 -64.9537 -64.9536
   -14.5608 -14.4655 -14.3043 -14.2000  -7.1829  -7.0043  -6.4736  -6.1756
    -6.1626  -5.9080  -5.6308  -5.4916  -5.1000  -5.0449  -4.4438  -4.3670
    -4.0944  -3.8504  -3.7730  -3.3006  -3.0820  -3.0272  -2.9749  -2.7243
    -1.5746  -1.3741   1.8448   2.0899   4.0003   4.1667   4.1706   4.3267

     occupation numbers 
     1.0000   1.0000   1.0000   1.0000   1.0000   1.0000   1.0000   1.0000
     1.0000   1.0000   1.0000   1.0000   1.0000   1.0000   1.0000   1.0000
     1.0000   1.0000   1.0000   1.0000   1.0000   1.0000   1.0000   1.0000
     1.0000   1.0000   1.0000   1.0000   1.0000   1.0000   1.0000   1.0000
     0.0000   0.0000   0.0000   0.0000   0.0000   0.0000   0.0000   0.0000

          k = 0.3125 0.5413 0.0000 ( 48231 PWs)   bands (ev):

  -106.0000-104.6294 -66.4736 -66.4206 -66.4205 -64.9642 -64.9537 -64.9536
   -14.5322 -14.4687 -14.2734 -14.2047  -7.0771  -6.9122  -6.4478  -6.3926
    -6.1573  -6.0533  -5.5499  -5.4510  -5.2726  -5.1449  -4.4464  -4.3502
    -4.0916  -3.8265  -3.7690  -3.3151  -3.0680  -3.0215  -2.9657  -2.7968
    -1.5631  -1.4280   1.8888   2.1299   3.9557   4.1240   4.3171   4.4895

     occupation numbers 
     1.0000   1.0000   1.0000   1.0000   1.0000   1.0000   1.0000   1.0000
     1.0000   1.0000   1.0000   1.0000   1.0000   1.0000   1.0000   1.0000
     1.0000   1.0000   1.0000   1.0000   1.0000   1.0000   1.0000   1.0000
     1.0000   1.0000   1.0000   1.0000   1.0000   1.0000   1.0000   1.0000
     0.0000   0.0000   0.0000   0.0000   0.0000   0.0000   0.0000   0.0000

     the Fermi energy is    -1.7823 ev
     (compare with:    -1.7810 eV, computed in scf)

     Writing output data file ./tmp/nnso.save/
 
     init_run     :      0.93s CPU      1.01s WALL (       1 calls)
     electrons    :     36.19s CPU     36.74s WALL (       1 calls)

     Called by init_run:
     wfcinit      :      0.00s CPU      0.03s WALL (       1 calls)
     wfcinit:atom :      0.02s CPU      0.02s WALL (      30 calls)
     wfcinit:wfcr :      1.78s CPU      1.81s WALL (      30 calls)
     potinit      :      0.08s CPU      0.11s WALL (       1 calls)
     hinit0       :      0.73s CPU      0.75s WALL (       1 calls)

     Called by electrons:
     c_bands      :     36.19s CPU     36.74s WALL (       1 calls)
     v_of_rho     :      0.05s CPU      0.06s WALL (       1 calls)
     v_h          :      0.00s CPU      0.00s WALL (       1 calls)
     v_xc         :      0.05s CPU      0.06s WALL (       1 calls)

     Called by c_bands:
     init_us_2    :      0.02s CPU      0.02s WALL (      30 calls)
     cegterg      :     32.31s CPU     32.70s WALL (      64 calls)

     Called by sum_band:

     Called by *egterg:
     cdiaghg      :      2.65s CPU      2.68s WALL (    1093 calls)
     cegterg:over :      1.39s CPU      1.42s WALL (    1063 calls)
     cegterg:upda :      0.88s CPU      0.89s WALL (    1063 calls)
     cegterg:last :      0.92s CPU      0.93s WALL (     487 calls)
     h_psi        :     27.55s CPU     27.88s WALL (    1157 calls)
     g_psi        :      0.09s CPU      0.09s WALL (    1063 calls)

     Called by h_psi:
     h_psi:calbec :      0.73s CPU      0.74s WALL (    1157 calls)
     vloc_psi     :     26.23s CPU     26.54s WALL (    1157 calls)
     add_vuspsi   :      0.45s CPU      0.46s WALL (    1157 calls)

     General routines
     calbec       :      0.72s CPU      0.73s WALL (    1157 calls)
     fft          :      0.05s CPU      0.07s WALL (      27 calls)
     ffts         :      0.00s CPU      0.00s WALL (       4 calls)
     fftw         :     24.19s CPU     24.48s WALL (   79588 calls)
     interpolate  :      0.00s CPU      0.01s WALL (       4 calls)
     davcio       :      0.04s CPU      0.16s WALL (      60 calls)
 
     Parallel routines
 
     PWSCF        :     41.93s CPU     49.06s WALL

 
   This run was terminated on:  17: 6:46   8Mar2023            

=------------------------------------------------------------------------------=
   JOB DONE.
=------------------------------------------------------------------------------=
