
     Program PROJWFC v.6.8 starts on  8Mar2023 at 17: 7: 0 

     This program is part of the open-source Quantum ESPRESSO suite
     for quantum simulation of materials; please cite
         "P. Giannozzi et al., J. Phys.:Condens. Matter 21 395502 (2009);
         "P. Giannozzi et al., J. Phys.:Condens. Matter 29 465901 (2017);
         "P. Giannozzi et al., J. Chem. Phys. 152 154105 (2020);
          URL http://www.quantum-espresso.org", 
     in publications or presentations arising from this work. More details at
     http://www.quantum-espresso.org/quote

     Parallel version (MPI & OpenMP), running on      80 processor cores
     Number of MPI processes:                80
     Threads/MPI process:                     1

     MPI processes distributed on     2 nodes
     R & G space division:  proc/nbgrp/npool/nimage =      80
     183283 MiB available memory on the printing compute node when the environment starts
 

     Reading xml data from directory:

     ./tmp/nnso.save/

     IMPORTANT: XC functional enforced from input :
     Exchange-correlation= PBE
                           (   1   4   3   4   0   0   0)
     Any further DFT definition will be discarded
     Please, verify this is what you really want

 
     Parallelization info
     --------------------
     sticks:   dense  smooth     PW     G-vecs:    dense   smooth      PW
     Min          23      22      6                 5111     4806     684
     Max          24      23      7                 5135     4845     709
     Sum        1879    1789    499               409943   385631   55807
 
     Using Slab Decomposition
 

     Gaussian broadening (read from input): ngauss,degauss=   0    0.001000


     Calling projwave .... 

     Subspace diagonalization in iterative solution of the eigenvalue problem:
     a serial algorithm will be used

 
  Problem Sizes 
  natomwfc =           36
  nbnd     =           40
  nkstot   =           30
  npwx     =          622
  nkb      =           54
 

     Atomic states used for projection
     (read from pseudopotential files):

     state #   1: atom   1 (Ni ), wfc  1 (l=0 m= 1 s_z= 0.5)
     state #   2: atom   1 (Ni ), wfc  1 (l=0 m= 1 s_z=-0.5)
     state #   3: atom   1 (Ni ), wfc  2 (l=1 m= 1 s_z= 0.5)
     state #   4: atom   1 (Ni ), wfc  2 (l=1 m= 2 s_z= 0.5)
     state #   5: atom   1 (Ni ), wfc  2 (l=1 m= 3 s_z= 0.5)
     state #   6: atom   1 (Ni ), wfc  2 (l=1 m= 1 s_z=-0.5)
     state #   7: atom   1 (Ni ), wfc  2 (l=1 m= 2 s_z=-0.5)
     state #   8: atom   1 (Ni ), wfc  2 (l=1 m= 3 s_z=-0.5)
     state #   9: atom   1 (Ni ), wfc  3 (l=2 m= 1 s_z= 0.5)
     state #  10: atom   1 (Ni ), wfc  3 (l=2 m= 2 s_z= 0.5)
     state #  11: atom   1 (Ni ), wfc  3 (l=2 m= 3 s_z= 0.5)
     state #  12: atom   1 (Ni ), wfc  3 (l=2 m= 4 s_z= 0.5)
     state #  13: atom   1 (Ni ), wfc  3 (l=2 m= 5 s_z= 0.5)
     state #  14: atom   1 (Ni ), wfc  3 (l=2 m= 1 s_z=-0.5)
     state #  15: atom   1 (Ni ), wfc  3 (l=2 m= 2 s_z=-0.5)
     state #  16: atom   1 (Ni ), wfc  3 (l=2 m= 3 s_z=-0.5)
     state #  17: atom   1 (Ni ), wfc  3 (l=2 m= 4 s_z=-0.5)
     state #  18: atom   1 (Ni ), wfc  3 (l=2 m= 5 s_z=-0.5)
     state #  19: atom   1 (Ni ), wfc  4 (l=0 m= 1 s_z= 0.5)
     state #  20: atom   1 (Ni ), wfc  4 (l=0 m= 1 s_z=-0.5)
     state #  21: atom   2 (I  ), wfc  1 (l=0 m= 1 s_z= 0.5)
     state #  22: atom   2 (I  ), wfc  1 (l=0 m= 1 s_z=-0.5)
     state #  23: atom   2 (I  ), wfc  2 (l=1 m= 1 s_z= 0.5)
     state #  24: atom   2 (I  ), wfc  2 (l=1 m= 2 s_z= 0.5)
     state #  25: atom   2 (I  ), wfc  2 (l=1 m= 3 s_z= 0.5)
     state #  26: atom   2 (I  ), wfc  2 (l=1 m= 1 s_z=-0.5)
     state #  27: atom   2 (I  ), wfc  2 (l=1 m= 2 s_z=-0.5)
     state #  28: atom   2 (I  ), wfc  2 (l=1 m= 3 s_z=-0.5)
     state #  29: atom   3 (I  ), wfc  1 (l=0 m= 1 s_z= 0.5)
     state #  30: atom   3 (I  ), wfc  1 (l=0 m= 1 s_z=-0.5)
     state #  31: atom   3 (I  ), wfc  2 (l=1 m= 1 s_z= 0.5)
     state #  32: atom   3 (I  ), wfc  2 (l=1 m= 2 s_z= 0.5)
     state #  33: atom   3 (I  ), wfc  2 (l=1 m= 3 s_z= 0.5)
     state #  34: atom   3 (I  ), wfc  2 (l=1 m= 1 s_z=-0.5)
     state #  35: atom   3 (I  ), wfc  2 (l=1 m= 2 s_z=-0.5)
     state #  36: atom   3 (I  ), wfc  2 (l=1 m= 3 s_z=-0.5)

 k =   0.0000000000  0.0000000000  0.0000000000
==== e(   1) =  -106.00000 eV ==== 
     psi = 0.996*[#   1]+0.002*[#  23]+0.002*[#  31]
    |psi|^2 = 1.000
==== e(   2) =  -104.62942 eV ==== 
     psi = 0.996*[#   2]+0.002*[#  26]+0.002*[#  34]
    |psi|^2 = 1.000
==== e(   3) =   -66.47367 eV ==== 
     psi = 0.999*[#   3]
    |psi|^2 = 1.000
==== e(   4) =   -66.42024 eV ==== 
     psi = 0.500*[#   4]+0.500*[#   5]
    |psi|^2 = 1.000
==== e(   5) =   -66.42024 eV ==== 
     psi = 0.500*[#   4]+0.500*[#   5]
    |psi|^2 = 1.000
==== e(   6) =   -64.96430 eV ==== 
     psi = 0.999*[#   6]
    |psi|^2 = 1.000
==== e(   7) =   -64.95326 eV ==== 
     psi = 0.500*[#   7]+0.500*[#   8]
    |psi|^2 = 1.000
==== e(   8) =   -64.95326 eV ==== 
     psi = 0.500*[#   7]+0.500*[#   8]
    |psi|^2 = 1.000
==== e(   9) =   -15.79575 eV ==== 
     psi = 0.364*[#  21]+0.364*[#  29]+0.261*[#  19]+0.005*[#  23]+0.005*[#  31]
          +0.001*[#   1]
    |psi|^2 = 1.000
==== e(  10) =   -15.57091 eV ==== 
     psi = 0.361*[#  22]+0.361*[#  30]+0.266*[#  20]+0.005*[#  26]+0.005*[#  34]
          +0.001*[#   2]
    |psi|^2 = 1.000
==== e(  11) =   -14.85357 eV ==== 
     psi = 0.495*[#  21]+0.495*[#  29]+0.003*[#  23]+0.003*[#  31]
    |psi|^2 = 0.997
==== e(  12) =   -14.59735 eV ==== 
     psi = 0.495*[#  22]+0.495*[#  30]+0.003*[#  26]+0.003*[#  34]
    |psi|^2 = 0.997
==== e(  13) =    -6.86264 eV ==== 
     psi = 0.374*[#  23]+0.374*[#  31]+0.100*[#   9]+0.072*[#  19]+0.035*[#  21]
          +0.035*[#  29]+0.002*[#   1]
    |psi|^2 = 0.994
==== e(  14) =    -6.64348 eV ==== 
     psi = 0.381*[#  26]+0.381*[#  34]+0.078*[#  14]+0.075*[#  20]+0.039*[#  22]
          +0.039*[#  30]+0.003*[#   2]
    |psi|^2 = 0.994
==== e(  15) =    -5.81841 eV ==== 
     psi = 0.193*[#  12]+0.193*[#  13]+0.186*[#  10]+0.186*[#  11]+0.060*[#  24]
          +0.060*[#  25]+0.060*[#  32]+0.060*[#  33]
    |psi|^2 = 0.995
==== e(  16) =    -5.81841 eV ==== 
     psi = 0.193*[#  12]+0.193*[#  13]+0.186*[#  10]+0.186*[#  11]+0.060*[#  24]
          +0.060*[#  25]+0.060*[#  32]+0.060*[#  33]
    |psi|^2 = 0.995
==== e(  17) =    -4.57144 eV ==== 
     psi = 0.214*[#  17]+0.214*[#  18]+0.117*[#  27]+0.117*[#  28]+0.117*[#  35]
          +0.117*[#  36]+0.046*[#  15]+0.046*[#  16]
    |psi|^2 = 0.988
==== e(  18) =    -4.57144 eV ==== 
     psi = 0.214*[#  17]+0.214*[#  18]+0.117*[#  27]+0.117*[#  28]+0.117*[#  35]
          +0.117*[#  36]+0.046*[#  15]+0.046*[#  16]
    |psi|^2 = 0.988
==== e(  19) =    -4.28596 eV ==== 
     psi = 0.285*[#  10]+0.285*[#  11]+0.201*[#  12]+0.201*[#  13]+0.004*[#  24]
          +0.004*[#  25]+0.004*[#  32]+0.004*[#  33]
    |psi|^2 = 0.990
==== e(  20) =    -4.28596 eV ==== 
     psi = 0.285*[#  10]+0.285*[#  11]+0.201*[#  12]+0.201*[#  13]+0.004*[#  24]
          +0.004*[#  25]+0.004*[#  32]+0.004*[#  33]
    |psi|^2 = 0.990
==== e(  21) =    -3.92004 eV ==== 
     psi = 0.885*[#   9]+0.035*[#  23]+0.035*[#  31]+0.025*[#  19]+0.006*[#  21]
          +0.006*[#  29]
    |psi|^2 = 0.993
==== e(  22) =    -3.79169 eV ==== 
     psi = 0.495*[#  23]+0.495*[#  31]+0.003*[#  21]+0.003*[#  29]
    |psi|^2 = 0.995
==== e(  23) =    -3.54914 eV ==== 
     psi = 0.494*[#  26]+0.494*[#  34]+0.003*[#  22]+0.003*[#  30]
    |psi|^2 = 0.994
==== e(  24) =    -3.34563 eV ==== 
     psi = 0.349*[#  15]+0.349*[#  16]+0.135*[#  17]+0.135*[#  18]+0.004*[#  27]
          +0.004*[#  28]+0.004*[#  35]+0.004*[#  36]
    |psi|^2 = 0.986
==== e(  25) =    -3.34563 eV ==== 
     psi = 0.349*[#  15]+0.349*[#  16]+0.135*[#  17]+0.135*[#  18]+0.004*[#  27]
          +0.004*[#  28]+0.004*[#  35]+0.004*[#  36]
    |psi|^2 = 0.986
==== e(  26) =    -3.18542 eV ==== 
     psi = 0.900*[#  14]+0.025*[#  20]+0.025*[#  26]+0.025*[#  34]+0.006*[#  22]
          +0.006*[#  30]
    |psi|^2 = 0.987
==== e(  27) =    -2.88163 eV ==== 
     psi = 0.246*[#  24]+0.246*[#  25]+0.246*[#  32]+0.246*[#  33]
    |psi|^2 = 0.984
==== e(  28) =    -2.88163 eV ==== 
     psi = 0.246*[#  24]+0.246*[#  25]+0.246*[#  32]+0.246*[#  33]
    |psi|^2 = 0.984
==== e(  29) =    -2.62932 eV ==== 
     psi = 0.245*[#  27]+0.245*[#  28]+0.245*[#  35]+0.245*[#  36]
    |psi|^2 = 0.980
==== e(  30) =    -2.62932 eV ==== 
     psi = 0.245*[#  27]+0.245*[#  28]+0.245*[#  35]+0.245*[#  36]
    |psi|^2 = 0.980
==== e(  31) =    -1.98558 eV ==== 
     psi = 0.185*[#  24]+0.185*[#  25]+0.185*[#  32]+0.185*[#  33]+0.103*[#  12]
          +0.103*[#  13]+0.026*[#  10]+0.026*[#  11]
    |psi|^2 = 0.999
==== e(  32) =    -1.98558 eV ==== 
     psi = 0.185*[#  24]+0.185*[#  25]+0.185*[#  32]+0.185*[#  33]+0.103*[#  12]
          +0.103*[#  13]+0.026*[#  10]+0.026*[#  11]
    |psi|^2 = 0.999
==== e(  33) =    -0.89076 eV ==== 
     psi = 0.145*[#  17]+0.145*[#  18]+0.128*[#  27]+0.128*[#  28]+0.128*[#  35]
          +0.128*[#  36]+0.097*[#  15]+0.097*[#  16]
    |psi|^2 = 0.996
==== e(  34) =    -0.89076 eV ==== 
     psi = 0.145*[#  17]+0.145*[#  18]+0.128*[#  27]+0.128*[#  28]+0.128*[#  35]
          +0.128*[#  36]+0.097*[#  15]+0.097*[#  16]
    |psi|^2 = 0.996
==== e(  35) =     1.76637 eV ==== 
     psi = 0.402*[#  19]+0.058*[#  21]+0.058*[#  29]+0.053*[#  23]+0.053*[#  31]
          +0.002*[#   9]
    |psi|^2 = 0.627
==== e(  36) =     1.89897 eV ==== 
     psi = 0.376*[#  20]+0.055*[#  22]+0.055*[#  30]+0.052*[#  26]+0.052*[#  34]
          +0.002*[#  14]
    |psi|^2 = 0.592
==== e(  37) =     2.50440 eV ==== 
     psi = 0.001*[#  21]+0.001*[#  29]
    |psi|^2 = 0.004
==== e(  38) =     2.60931 eV ==== 
     psi = 0.002*[#  22]+0.002*[#  30]+0.001*[#  26]+0.001*[#  34]
    |psi|^2 = 0.005
==== e(  39) =     2.68439 eV ==== 
 
    |psi|^2 = 0.000
==== e(  40) =     2.75760 eV ==== 
 
    |psi|^2 = 0.000

 k =   0.0000000000  0.0721687836  0.0000000000
==== e(   1) =  -106.00000 eV ==== 
     psi = 0.996*[#   1]+0.002*[#  23]+0.002*[#  31]
    |psi|^2 = 1.000
==== e(   2) =  -104.62942 eV ==== 
     psi = 0.996*[#   2]+0.002*[#  26]+0.002*[#  34]
    |psi|^2 = 1.000
==== e(   3) =   -66.47367 eV ==== 
     psi = 0.999*[#   3]
    |psi|^2 = 1.000
==== e(   4) =   -66.42026 eV ==== 
     psi = 0.500*[#   4]+0.500*[#   5]
    |psi|^2 = 1.000
==== e(   5) =   -66.42024 eV ==== 
     psi = 0.500*[#   4]+0.500*[#   5]
    |psi|^2 = 1.000
==== e(   6) =   -64.96430 eV ==== 
     psi = 0.999*[#   6]
    |psi|^2 = 1.000
==== e(   7) =   -64.95328 eV ==== 
     psi = 0.500*[#   7]+0.500*[#   8]
    |psi|^2 = 1.000
==== e(   8) =   -64.95327 eV ==== 
     psi = 0.500*[#   7]+0.500*[#   8]
    |psi|^2 = 1.000
==== e(   9) =   -15.76540 eV ==== 
     psi = 0.367*[#  21]+0.367*[#  29]+0.254*[#  19]+0.005*[#  23]+0.005*[#  31]
          +0.001*[#   1]
    |psi|^2 = 1.000
==== e(  10) =   -15.54011 eV ==== 
     psi = 0.363*[#  22]+0.363*[#  30]+0.259*[#  20]+0.005*[#  26]+0.005*[#  34]
          +0.001*[#   2]
    |psi|^2 = 1.000
==== e(  11) =   -14.83690 eV ==== 
     psi = 0.494*[#  21]+0.494*[#  29]+0.003*[#  23]+0.003*[#  31]
    |psi|^2 = 0.997
==== e(  12) =   -14.58012 eV ==== 
     psi = 0.494*[#  22]+0.494*[#  30]+0.003*[#  26]+0.003*[#  34]
    |psi|^2 = 0.997
==== e(  13) =    -6.83143 eV ==== 
     psi = 0.373*[#  23]+0.373*[#  31]+0.099*[#   9]+0.074*[#  19]+0.036*[#  21]
          +0.036*[#  29]+0.002*[#   1]
    |psi|^2 = 0.994
==== e(  14) =    -6.61297 eV ==== 
     psi = 0.380*[#  26]+0.380*[#  34]+0.078*[#  20]+0.076*[#  14]+0.039*[#  22]
          +0.039*[#  30]+0.002*[#   2]
    |psi|^2 = 0.994
==== e(  15) =    -5.85768 eV ==== 
     psi = 0.189*[#  12]+0.189*[#  13]+0.175*[#  10]+0.175*[#  11]+0.062*[#  24]
          +0.062*[#  25]+0.062*[#  32]+0.062*[#  33]+0.008*[#  23]+0.008*[#  31]
          
    |psi|^2 = 0.995
==== e(  16) =    -5.81507 eV ==== 
     psi = 0.189*[#  10]+0.189*[#  11]+0.189*[#  12]+0.189*[#  13]+0.060*[#  24]
          +0.060*[#  25]+0.060*[#  32]+0.060*[#  33]
    |psi|^2 = 0.995
==== e(  17) =    -4.68614 eV ==== 
     psi = 0.194*[#  17]+0.194*[#  18]+0.116*[#  27]+0.116*[#  28]+0.116*[#  35]
          +0.116*[#  36]+0.040*[#  15]+0.040*[#  16]+0.026*[#  26]+0.026*[#  34]
          
    |psi|^2 = 0.988
==== e(  18) =    -4.56824 eV ==== 
     psi = 0.209*[#  17]+0.209*[#  18]+0.119*[#  27]+0.119*[#  28]+0.119*[#  35]
          +0.119*[#  36]+0.048*[#  15]+0.048*[#  16]
    |psi|^2 = 0.988
==== e(  19) =    -4.33282 eV ==== 
     psi = 0.285*[#  10]+0.285*[#  11]+0.177*[#  12]+0.177*[#  13]+0.013*[#  24]
          +0.013*[#  25]+0.013*[#  32]+0.013*[#  33]+0.006*[#   9]+0.003*[#  23]
          +0.003*[#  31]
    |psi|^2 = 0.989
==== e(  20) =    -4.30370 eV ==== 
     psi = 0.275*[#  10]+0.275*[#  11]+0.199*[#  12]+0.199*[#  13]+0.010*[#  24]
          +0.010*[#  25]+0.010*[#  32]+0.010*[#  33]
    |psi|^2 = 0.990
==== e(  21) =    -3.96227 eV ==== 
     psi = 0.838*[#   9]+0.029*[#  19]+0.028*[#  23]+0.028*[#  31]+0.010*[#  24]
          +0.010*[#  25]+0.010*[#  32]+0.010*[#  33]+0.008*[#  21]+0.008*[#  29]
          +0.004*[#  10]+0.004*[#  11]+0.003*[#  12]+0.003*[#  13]
    |psi|^2 = 0.992
==== e(  22) =    -3.74019 eV ==== 
     psi = 0.483*[#  23]+0.483*[#  31]+0.008*[#  12]+0.008*[#  13]+0.002*[#  21]
          +0.002*[#  29]+0.002*[#  24]+0.002*[#  25]+0.002*[#  32]+0.002*[#  33]
          
    |psi|^2 = 0.994
==== e(  23) =    -3.48264 eV ==== 
     psi = 0.414*[#  26]+0.414*[#  34]+0.036*[#  17]+0.036*[#  18]+0.023*[#  15]
          +0.023*[#  16]+0.008*[#  27]+0.008*[#  28]+0.008*[#  35]+0.008*[#  36]
          +0.007*[#  14]+0.002*[#  22]+0.002*[#  30]
    |psi|^2 = 0.990
==== e(  24) =    -3.43103 eV ==== 
     psi = 0.239*[#  15]+0.239*[#  16]+0.096*[#  14]+0.059*[#  17]+0.059*[#  18]
          +0.053*[#  26]+0.053*[#  34]+0.043*[#  27]+0.043*[#  28]+0.043*[#  35]
          +0.043*[#  36]+0.007*[#  20]+0.003*[#  22]+0.003*[#  30]
    |psi|^2 = 0.985
==== e(  25) =    -3.39718 eV ==== 
     psi = 0.328*[#  15]+0.328*[#  16]+0.123*[#  17]+0.123*[#  18]+0.021*[#  27]
          +0.021*[#  28]+0.021*[#  35]+0.021*[#  36]
    |psi|^2 = 0.985
==== e(  26) =    -3.25104 eV ==== 
     psi = 0.650*[#  14]+0.069*[#  15]+0.069*[#  16]+0.033*[#  17]+0.033*[#  18]
          +0.025*[#  20]+0.016*[#  27]+0.016*[#  28]+0.016*[#  35]+0.016*[#  36]
          +0.014*[#  26]+0.014*[#  34]+0.007*[#  22]+0.007*[#  30]
    |psi|^2 = 0.986
==== e(  27) =    -3.03983 eV ==== 
     psi = 0.218*[#  24]+0.218*[#  25]+0.218*[#  32]+0.218*[#  33]+0.044*[#   9]
          +0.015*[#  12]+0.015*[#  13]+0.011*[#  23]+0.011*[#  31]+0.005*[#  19]
          +0.004*[#  10]+0.004*[#  11]+0.002*[#  21]+0.002*[#  29]
    |psi|^2 = 0.985
==== e(  28) =    -2.91866 eV ==== 
     psi = 0.237*[#  24]+0.237*[#  25]+0.237*[#  32]+0.237*[#  33]+0.014*[#  12]
          +0.014*[#  13]+0.003*[#  10]+0.003*[#  11]
    |psi|^2 = 0.983
==== e(  29) =    -2.70449 eV ==== 
     psi = 0.181*[#  27]+0.181*[#  28]+0.181*[#  35]+0.181*[#  36]+0.150*[#  14]
          +0.023*[#  17]+0.023*[#  18]+0.016*[#  26]+0.016*[#  34]+0.014*[#  15]
          +0.014*[#  16]+0.001*[#  20]
    |psi|^2 = 0.984
==== e(  30) =    -2.63608 eV ==== 
     psi = 0.226*[#  27]+0.226*[#  28]+0.226*[#  35]+0.226*[#  36]+0.025*[#  17]
          +0.025*[#  18]+0.013*[#  15]+0.013*[#  16]
    |psi|^2 = 0.980
==== e(  31) =    -2.16155 eV ==== 
     psi = 0.181*[#  24]+0.181*[#  25]+0.181*[#  32]+0.181*[#  33]+0.104*[#  12]
          +0.104*[#  13]+0.028*[#  10]+0.028*[#  11]+0.002*[#  21]+0.002*[#  29]
          
    |psi|^2 = 0.992
==== e(  32) =    -2.01139 eV ==== 
     psi = 0.188*[#  24]+0.188*[#  25]+0.188*[#  32]+0.188*[#  33]+0.095*[#  12]
          +0.095*[#  13]+0.030*[#  10]+0.030*[#  11]
    |psi|^2 = 0.998
==== e(  33) =    -1.04530 eV ==== 
     psi = 0.147*[#  17]+0.147*[#  18]+0.118*[#  27]+0.118*[#  28]+0.118*[#  35]
          +0.118*[#  36]+0.106*[#  15]+0.106*[#  16]+0.002*[#  22]+0.002*[#  30]
          
    |psi|^2 = 0.985
==== e(  34) =    -0.91336 eV ==== 
     psi = 0.138*[#  17]+0.138*[#  18]+0.128*[#  27]+0.128*[#  28]+0.128*[#  35]
          +0.128*[#  36]+0.103*[#  15]+0.103*[#  16]
    |psi|^2 = 0.995
==== e(  35) =     1.91171 eV ==== 
     psi = 0.372*[#  19]+0.050*[#  21]+0.050*[#  29]+0.047*[#  23]+0.047*[#  31]
          +0.004*[#  24]+0.004*[#  25]+0.004*[#  32]+0.004*[#  33]
    |psi|^2 = 0.585
==== e(  36) =     2.04236 eV ==== 
     psi = 0.343*[#  20]+0.047*[#  22]+0.047*[#  30]+0.046*[#  26]+0.046*[#  34]
          +0.004*[#  27]+0.004*[#  28]+0.004*[#  35]+0.004*[#  36]
    |psi|^2 = 0.545
==== e(  37) =     2.70342 eV ==== 
 
    |psi|^2 = 0.006
==== e(  38) =     2.75395 eV ==== 
 
    |psi|^2 = 0.007
==== e(  39) =     2.79187 eV ==== 
 
    |psi|^2 = 0.003
==== e(  40) =     2.85820 eV ==== 
     psi = 0.002*[#  27]+0.002*[#  28]+0.002*[#  35]+0.002*[#  36]+0.001*[#  22]
          +0.001*[#  30]
    |psi|^2 = 0.015

 k =   0.0000000000  0.1443375673  0.0000000000
==== e(   1) =  -106.00000 eV ==== 
     psi = 0.995*[#   1]+0.002*[#  23]+0.002*[#  31]
    |psi|^2 = 1.000
==== e(   2) =  -104.62942 eV ==== 
     psi = 0.995*[#   2]+0.002*[#  26]+0.002*[#  34]
    |psi|^2 = 1.000
==== e(   3) =   -66.47366 eV ==== 
     psi = 0.999*[#   3]
    |psi|^2 = 1.000
==== e(   4) =   -66.42031 eV ==== 
     psi = 0.500*[#   4]+0.500*[#   5]
    |psi|^2 = 1.000
==== e(   5) =   -66.42026 eV ==== 
     psi = 0.500*[#   4]+0.500*[#   5]
    |psi|^2 = 1.000
==== e(   6) =   -64.96429 eV ==== 
     psi = 0.999*[#   6]
    |psi|^2 = 1.000
==== e(   7) =   -64.95334 eV ==== 
     psi = 0.500*[#   7]+0.500*[#   8]
    |psi|^2 = 1.000
==== e(   8) =   -64.95328 eV ==== 
     psi = 0.500*[#   7]+0.500*[#   8]
    |psi|^2 = 1.000
==== e(   9) =   -15.67640 eV ==== 
     psi = 0.374*[#  21]+0.374*[#  29]+0.234*[#  19]+0.005*[#  23]+0.005*[#  31]
          +0.001*[#  24]+0.001*[#  25]+0.001*[#  32]+0.001*[#  33]
    |psi|^2 = 1.000
==== e(  10) =   -15.44970 eV ==== 
     psi = 0.371*[#  22]+0.371*[#  30]+0.239*[#  20]+0.005*[#  26]+0.005*[#  34]
          +0.001*[#  27]+0.001*[#  28]+0.001*[#  35]+0.001*[#  36]
    |psi|^2 = 1.000
==== e(  11) =   -14.78922 eV ==== 
     psi = 0.492*[#  21]+0.492*[#  29]+0.002*[#  23]+0.002*[#  31]+0.001*[#  10]
          +0.001*[#  11]+0.001*[#  24]+0.001*[#  25]+0.001*[#  32]+0.001*[#  33]
          
    |psi|^2 = 0.997
==== e(  12) =   -14.53087 eV ==== 
     psi = 0.492*[#  22]+0.492*[#  30]+0.002*[#  26]+0.002*[#  34]+0.001*[#  27]
          +0.001*[#  28]+0.001*[#  35]+0.001*[#  36]+0.001*[#  15]+0.001*[#  16]
          
    |psi|^2 = 0.997
==== e(  13) =    -6.74336 eV ==== 
     psi = 0.370*[#  23]+0.370*[#  31]+0.093*[#   9]+0.081*[#  19]+0.036*[#  21]
          +0.036*[#  29]+0.002*[#   1]+0.001*[#  24]+0.001*[#  25]+0.001*[#  32]
          +0.001*[#  33]
    |psi|^2 = 0.994
==== e(  14) =    -6.52747 eV ==== 
     psi = 0.375*[#  26]+0.375*[#  34]+0.085*[#  20]+0.071*[#  14]+0.040*[#  22]
          +0.040*[#  30]+0.002*[#   2]+0.001*[#  27]+0.001*[#  28]+0.001*[#  35]
          +0.001*[#  36]
    |psi|^2 = 0.994
==== e(  15) =    -5.96302 eV ==== 
     psi = 0.179*[#  12]+0.179*[#  13]+0.148*[#  10]+0.148*[#  11]+0.071*[#  24]
          +0.071*[#  25]+0.071*[#  32]+0.071*[#  33]+0.027*[#  23]+0.027*[#  31]
          
    |psi|^2 = 0.994
==== e(  16) =    -5.80594 eV ==== 
     psi = 0.199*[#  10]+0.199*[#  11]+0.177*[#  12]+0.177*[#  13]+0.061*[#  24]
          +0.061*[#  25]+0.061*[#  32]+0.061*[#  33]
    |psi|^2 = 0.995
==== e(  17) =    -4.96360 eV ==== 
     psi = 0.159*[#  17]+0.159*[#  18]+0.124*[#  27]+0.124*[#  28]+0.124*[#  35]
          +0.124*[#  36]+0.056*[#  26]+0.056*[#  34]+0.028*[#  15]+0.028*[#  16]
          +0.001*[#  22]+0.001*[#  30]
    |psi|^2 = 0.986
==== e(  18) =    -4.55923 eV ==== 
     psi = 0.191*[#  17]+0.191*[#  18]+0.125*[#  27]+0.125*[#  28]+0.125*[#  35]
          +0.125*[#  36]+0.053*[#  15]+0.053*[#  16]
    |psi|^2 = 0.987
==== e(  19) =    -4.54828 eV ==== 
     psi = 0.228*[#  10]+0.228*[#  11]+0.091*[#  12]+0.091*[#  13]+0.070*[#   9]
          +0.061*[#  24]+0.061*[#  25]+0.061*[#  32]+0.061*[#  33]+0.012*[#  19]
          +0.005*[#  23]+0.005*[#  31]+0.005*[#  21]+0.005*[#  29]
    |psi|^2 = 0.986
==== e(  20) =    -4.35157 eV ==== 
     psi = 0.247*[#  10]+0.247*[#  11]+0.194*[#  12]+0.194*[#  13]+0.027*[#  24]
          +0.027*[#  25]+0.027*[#  32]+0.027*[#  33]
    |psi|^2 = 0.989
==== e(  21) =    -4.07044 eV ==== 
     psi = 0.608*[#   9]+0.064*[#  10]+0.064*[#  11]+0.043*[#  12]+0.043*[#  13]
          +0.033*[#  19]+0.022*[#  24]+0.022*[#  25]+0.022*[#  32]+0.022*[#  33]
          +0.014*[#  23]+0.014*[#  31]+0.009*[#  21]+0.009*[#  29]
    |psi|^2 = 0.990
==== e(  22) =    -3.86782 eV ==== 
     psi = 0.165*[#  14]+0.126*[#  27]+0.126*[#  28]+0.126*[#  35]+0.126*[#  36]
          +0.113*[#  15]+0.113*[#  16]+0.032*[#  20]+0.012*[#  17]+0.012*[#  18]
          +0.011*[#  22]+0.011*[#  30]+0.003*[#  26]+0.003*[#  34]
    |psi|^2 = 0.981
==== e(  23) =    -3.61851 eV ==== 
     psi = 0.455*[#  23]+0.455*[#  31]+0.019*[#  12]+0.019*[#  13]+0.010*[#  24]
          +0.010*[#  25]+0.010*[#  32]+0.010*[#  33]+0.003*[#   9]+0.001*[#  21]
          +0.001*[#  29]
    |psi|^2 = 0.991
==== e(  24) =    -3.53010 eV ==== 
     psi = 0.284*[#  15]+0.284*[#  16]+0.098*[#  17]+0.098*[#  18]+0.055*[#  27]
          +0.055*[#  28]+0.055*[#  35]+0.055*[#  36]
    |psi|^2 = 0.985
==== e(  25) =    -3.35164 eV ==== 
     psi = 0.407*[#  26]+0.407*[#  34]+0.025*[#  17]+0.025*[#  18]+0.022*[#  27]
          +0.022*[#  28]+0.022*[#  35]+0.022*[#  36]+0.019*[#  14]+0.005*[#  15]
          +0.005*[#  16]+0.001*[#  20]+0.001*[#  22]+0.001*[#  30]
    |psi|^2 = 0.987
==== e(  26) =    -3.32598 eV ==== 
     psi = 0.209*[#   9]+0.137*[#  24]+0.137*[#  25]+0.137*[#  32]+0.137*[#  33]
          +0.052*[#  12]+0.052*[#  13]+0.039*[#  23]+0.039*[#  31]+0.017*[#  10]
          +0.017*[#  11]+0.006*[#  19]+0.003*[#  21]+0.003*[#  29]
    |psi|^2 = 0.988
==== e(  27) =    -3.29809 eV ==== 
     psi = 0.327*[#  14]+0.179*[#  15]+0.179*[#  16]+0.083*[#  17]+0.083*[#  18]
          +0.029*[#  26]+0.029*[#  34]+0.016*[#  20]+0.013*[#  27]+0.013*[#  28]
          +0.013*[#  35]+0.013*[#  36]+0.004*[#  22]+0.004*[#  30]
    |psi|^2 = 0.984
==== e(  28) =    -3.02930 eV ==== 
     psi = 0.214*[#  24]+0.214*[#  25]+0.214*[#  32]+0.214*[#  33]+0.054*[#  12]
          +0.054*[#  13]+0.010*[#  10]+0.010*[#  11]
    |psi|^2 = 0.982
==== e(  29) =    -2.79745 eV ==== 
     psi = 0.399*[#  14]+0.085*[#  27]+0.085*[#  28]+0.085*[#  35]+0.085*[#  36]
          +0.059*[#  17]+0.059*[#  18]+0.034*[#  26]+0.034*[#  34]+0.030*[#  15]
          +0.030*[#  16]
    |psi|^2 = 0.989
==== e(  30) =    -2.67051 eV ==== 
     psi = 0.185*[#  27]+0.185*[#  28]+0.185*[#  35]+0.185*[#  36]+0.086*[#  17]
          +0.086*[#  18]+0.035*[#  15]+0.035*[#  16]
    |psi|^2 = 0.981
==== e(  31) =    -2.57969 eV ==== 
     psi = 0.165*[#  24]+0.165*[#  25]+0.165*[#  32]+0.165*[#  33]+0.110*[#  12]
          +0.110*[#  13]+0.037*[#  10]+0.037*[#  11]+0.007*[#  23]+0.007*[#  31]
          +0.006*[#   9]+0.006*[#  21]+0.006*[#  29]
    |psi|^2 = 0.986
==== e(  32) =    -2.07251 eV ==== 
     psi = 0.193*[#  24]+0.193*[#  25]+0.193*[#  32]+0.193*[#  33]+0.072*[#  12]
          +0.072*[#  13]+0.042*[#  10]+0.042*[#  11]
    |psi|^2 = 0.998
==== e(  33) =    -1.36035 eV ==== 
     psi = 0.154*[#  17]+0.154*[#  18]+0.134*[#  15]+0.134*[#  16]+0.093*[#  27]
          +0.093*[#  28]+0.093*[#  35]+0.093*[#  36]+0.009*[#  26]+0.009*[#  34]
          +0.005*[#  22]+0.005*[#  30]+0.001*[#  14]
    |psi|^2 = 0.978
==== e(  34) =    -0.96562 eV ==== 
     psi = 0.127*[#  27]+0.127*[#  28]+0.127*[#  35]+0.127*[#  36]+0.122*[#  15]
          +0.122*[#  16]+0.120*[#  17]+0.120*[#  18]
    |psi|^2 = 0.993
==== e(  35) =     2.23675 eV ==== 
     psi = 0.317*[#  19]+0.037*[#  23]+0.037*[#  31]+0.035*[#  21]+0.035*[#  29]
          +0.010*[#  24]+0.010*[#  25]+0.010*[#  32]+0.010*[#  33]
    |psi|^2 = 0.502
==== e(  36) =     2.36569 eV ==== 
     psi = 0.276*[#  20]+0.033*[#  26]+0.033*[#  34]+0.031*[#  22]+0.031*[#  30]
          +0.009*[#  27]+0.009*[#  28]+0.009*[#  35]+0.009*[#  36]
    |psi|^2 = 0.442
==== e(  37) =     2.82121 eV ==== 
     psi = 0.003*[#  19]
    |psi|^2 = 0.007
==== e(  38) =     2.90519 eV ==== 
     psi = 0.002*[#  20]
    |psi|^2 = 0.007
==== e(  39) =     2.95514 eV ==== 
     psi = 0.087*[#  19]+0.009*[#  21]+0.009*[#  29]+0.009*[#  23]+0.009*[#  31]
          +0.008*[#  24]+0.008*[#  25]+0.008*[#  32]+0.008*[#  33]+0.002*[#   9]
          
    |psi|^2 = 0.157
==== e(  40) =     3.10055 eV ==== 
     psi = 0.098*[#  20]+0.011*[#  26]+0.011*[#  34]+0.010*[#  22]+0.010*[#  30]
          +0.009*[#  27]+0.009*[#  28]+0.009*[#  35]+0.009*[#  36]+0.003*[#  14]
          
    |psi|^2 = 0.183

 k =   0.0000000000  0.2165063509  0.0000000000
==== e(   1) =  -105.99999 eV ==== 
     psi = 0.995*[#   1]+0.001*[#  23]+0.001*[#  31]
    |psi|^2 = 1.000
==== e(   2) =  -104.62941 eV ==== 
     psi = 0.995*[#   2]+0.001*[#  26]+0.001*[#  34]
    |psi|^2 = 1.000
==== e(   3) =   -66.47365 eV ==== 
     psi = 0.999*[#   3]
    |psi|^2 = 1.000
==== e(   4) =   -66.42039 eV ==== 
     psi = 0.500*[#   4]+0.500*[#   5]
    |psi|^2 = 1.000
==== e(   5) =   -66.42027 eV ==== 
     psi = 0.500*[#   4]+0.500*[#   5]
    |psi|^2 = 1.000
==== e(   6) =   -64.96427 eV ==== 
     psi = 0.999*[#   6]
    |psi|^2 = 1.000
==== e(   7) =   -64.95343 eV ==== 
     psi = 0.500*[#   7]+0.500*[#   8]
    |psi|^2 = 1.000
==== e(   8) =   -64.95330 eV ==== 
     psi = 0.500*[#   7]+0.500*[#   8]
    |psi|^2 = 1.000
==== e(   9) =   -15.53510 eV ==== 
     psi = 0.387*[#  21]+0.387*[#  29]+0.203*[#  19]+0.005*[#  23]+0.005*[#  31]
          +0.003*[#  24]+0.003*[#  25]+0.003*[#  32]+0.003*[#  33]
    |psi|^2 = 0.999
==== e(  10) =   -15.30600 eV ==== 
     psi = 0.384*[#  22]+0.384*[#  30]+0.208*[#  20]+0.005*[#  26]+0.005*[#  34]
          +0.003*[#  27]+0.003*[#  28]+0.003*[#  35]+0.003*[#  36]
    |psi|^2 = 0.999
==== e(  11) =   -14.71773 eV ==== 
     psi = 0.489*[#  21]+0.489*[#  29]+0.003*[#  10]+0.003*[#  11]+0.002*[#  24]
          +0.002*[#  25]+0.002*[#  32]+0.002*[#  33]+0.002*[#  23]+0.002*[#  31]
          +0.001*[#  12]+0.001*[#  13]
    |psi|^2 = 0.998
==== e(  12) =   -14.45695 eV ==== 
     psi = 0.489*[#  22]+0.489*[#  30]+0.002*[#  15]+0.002*[#  16]+0.002*[#  27]
          +0.002*[#  28]+0.002*[#  35]+0.002*[#  36]+0.002*[#  26]+0.002*[#  34]
          +0.001*[#  17]+0.001*[#  18]
    |psi|^2 = 0.998
==== e(  13) =    -6.62217 eV ==== 
     psi = 0.355*[#  23]+0.355*[#  31]+0.097*[#  19]+0.079*[#   9]+0.039*[#  21]
          +0.039*[#  29]+0.006*[#  24]+0.006*[#  25]+0.006*[#  32]+0.006*[#  33]
          +0.002*[#   1]+0.001*[#  12]+0.001*[#  13]
    |psi|^2 = 0.995
==== e(  14) =    -6.41245 eV ==== 
     psi = 0.357*[#  26]+0.357*[#  34]+0.103*[#  20]+0.058*[#  14]+0.043*[#  22]
          +0.043*[#  30]+0.007*[#  27]+0.007*[#  28]+0.007*[#  35]+0.007*[#  36]
          +0.002*[#   2]
    |psi|^2 = 0.994
==== e(  15) =    -6.10976 eV ==== 
     psi = 0.163*[#  12]+0.163*[#  13]+0.110*[#  10]+0.110*[#  11]+0.088*[#  24]
          +0.088*[#  25]+0.088*[#  32]+0.088*[#  33]+0.046*[#  23]+0.046*[#  31]
          
    |psi|^2 = 0.992
==== e(  16) =    -5.79353 eV ==== 
     psi = 0.215*[#  10]+0.215*[#  11]+0.159*[#  12]+0.159*[#  13]+0.062*[#  24]
          +0.062*[#  25]+0.062*[#  32]+0.062*[#  33]
    |psi|^2 = 0.995
==== e(  17) =    -5.33320 eV ==== 
     psi = 0.144*[#  27]+0.144*[#  28]+0.144*[#  35]+0.144*[#  36]+0.119*[#  17]
          +0.119*[#  18]+0.067*[#  26]+0.067*[#  34]+0.013*[#  15]+0.013*[#  16]
          +0.004*[#  14]+0.003*[#  20]+0.002*[#  22]+0.002*[#  30]
    |psi|^2 = 0.982
==== e(  18) =    -5.02296 eV ==== 
     psi = 0.146*[#  10]+0.146*[#  11]+0.117*[#  24]+0.117*[#  25]+0.117*[#  32]
          +0.117*[#  33]+0.109*[#   9]+0.028*[#  19]+0.017*[#  12]+0.017*[#  13]
          +0.015*[#  23]+0.015*[#  31]+0.010*[#  21]+0.010*[#  29]
    |psi|^2 = 0.983
==== e(  19) =    -4.54611 eV ==== 
     psi = 0.162*[#  17]+0.162*[#  18]+0.135*[#  27]+0.135*[#  28]+0.135*[#  35]
          +0.135*[#  36]+0.062*[#  15]+0.062*[#  16]
    |psi|^2 = 0.986
==== e(  20) =    -4.45240 eV ==== 
     psi = 0.149*[#  27]+0.149*[#  28]+0.149*[#  35]+0.149*[#  36]+0.121*[#  14]
          +0.079*[#  15]+0.079*[#  16]+0.037*[#  20]+0.022*[#  26]+0.022*[#  34]
          +0.013*[#  22]+0.013*[#  30]
    |psi|^2 = 0.983
==== e(  21) =    -4.41523 eV ==== 
     psi = 0.205*[#  10]+0.205*[#  11]+0.185*[#  12]+0.185*[#  13]+0.052*[#  24]
          +0.052*[#  25]+0.052*[#  32]+0.052*[#  33]
    |psi|^2 = 0.988
==== e(  22) =    -4.15546 eV ==== 
     psi = 0.395*[#   9]+0.158*[#  10]+0.158*[#  11]+0.081*[#  12]+0.081*[#  13]
          +0.027*[#  19]+0.015*[#  24]+0.015*[#  25]+0.015*[#  32]+0.015*[#  33]
          +0.008*[#  21]+0.008*[#  29]+0.007*[#  23]+0.007*[#  31]
    |psi|^2 = 0.989
==== e(  23) =    -3.70332 eV ==== 
     psi = 0.236*[#  15]+0.236*[#  16]+0.091*[#  27]+0.091*[#  28]+0.091*[#  35]
          +0.091*[#  36]+0.074*[#  17]+0.074*[#  18]
    |psi|^2 = 0.984
==== e(  24) =    -3.55800 eV ==== 
     psi = 0.336*[#  23]+0.336*[#  31]+0.071*[#  24]+0.071*[#  25]+0.071*[#  32]
          +0.071*[#  33]+0.009*[#   9]+0.008*[#  12]+0.008*[#  13]
    |psi|^2 = 0.983
==== e(  25) =    -3.52889 eV ==== 
     psi = 0.361*[#   9]+0.111*[#  12]+0.111*[#  13]+0.073*[#  23]+0.073*[#  31]
          +0.054*[#  24]+0.054*[#  25]+0.054*[#  32]+0.054*[#  33]+0.022*[#  10]
          +0.022*[#  11]+0.002*[#  19]+0.002*[#  21]+0.002*[#  29]
    |psi|^2 = 0.993
==== e(  26) =    -3.34920 eV ==== 
     psi = 0.189*[#  14]+0.128*[#  15]+0.128*[#  16]+0.106*[#  26]+0.106*[#  34]
          +0.093*[#  17]+0.093*[#  18]+0.030*[#  27]+0.030*[#  28]+0.030*[#  35]
          +0.030*[#  36]+0.013*[#  20]+0.002*[#  22]+0.002*[#  30]
    |psi|^2 = 0.981
==== e(  27) =    -3.30104 eV ==== 
     psi = 0.293*[#  26]+0.293*[#  34]+0.081*[#  14]+0.070*[#  15]+0.070*[#  16]
          +0.036*[#  17]+0.036*[#  18]+0.024*[#  27]+0.024*[#  28]+0.024*[#  35]
          +0.024*[#  36]+0.004*[#  20]+0.001*[#  22]+0.001*[#  30]
    |psi|^2 = 0.984
==== e(  28) =    -3.20488 eV ==== 
     psi = 0.183*[#  24]+0.183*[#  25]+0.183*[#  32]+0.183*[#  33]+0.107*[#  12]
          +0.107*[#  13]+0.017*[#  10]+0.017*[#  11]
    |psi|^2 = 0.981
==== e(  29) =    -2.96394 eV ==== 
     psi = 0.112*[#  12]+0.112*[#  13]+0.103*[#  24]+0.103*[#  25]+0.103*[#  32]
          +0.103*[#  33]+0.094*[#  23]+0.094*[#  31]+0.056*[#  10]+0.056*[#  11]
          +0.038*[#   9]+0.009*[#  21]+0.009*[#  29]
    |psi|^2 = 0.993
==== e(  30) =    -2.85834 eV ==== 
     psi = 0.527*[#  14]+0.085*[#  17]+0.085*[#  18]+0.040*[#  27]+0.040*[#  28]
          +0.040*[#  35]+0.040*[#  36]+0.040*[#  26]+0.040*[#  34]+0.026*[#  15]
          +0.026*[#  16]
    |psi|^2 = 0.991
==== e(  31) =    -2.74827 eV ==== 
     psi = 0.162*[#  17]+0.162*[#  18]+0.141*[#  27]+0.141*[#  28]+0.141*[#  35]
          +0.141*[#  36]+0.047*[#  15]+0.047*[#  16]
    |psi|^2 = 0.981
==== e(  32) =    -2.13838 eV ==== 
     psi = 0.196*[#  24]+0.196*[#  25]+0.196*[#  32]+0.196*[#  33]+0.061*[#  10]
          +0.061*[#  11]+0.046*[#  12]+0.046*[#  13]
    |psi|^2 = 0.997
==== e(  33) =    -1.59017 eV ==== 
     psi = 0.171*[#  15]+0.171*[#  16]+0.155*[#  17]+0.155*[#  18]+0.057*[#  27]
          +0.057*[#  28]+0.057*[#  35]+0.057*[#  36]+0.038*[#  26]+0.038*[#  34]
          +0.009*[#  22]+0.009*[#  30]+0.006*[#  14]
    |psi|^2 = 0.982
==== e(  34) =    -1.01832 eV ==== 
     psi = 0.148*[#  15]+0.148*[#  16]+0.126*[#  27]+0.126*[#  28]+0.126*[#  35]
          +0.126*[#  36]+0.096*[#  17]+0.096*[#  18]
    |psi|^2 = 0.993
==== e(  35) =     2.43336 eV ==== 
     psi = 0.365*[#  19]+0.034*[#  23]+0.034*[#  31]+0.029*[#  21]+0.029*[#  29]
          +0.026*[#  24]+0.026*[#  25]+0.026*[#  32]+0.026*[#  33]+0.001*[#   9]
          
    |psi|^2 = 0.601
==== e(  36) =     2.63504 eV ==== 
     psi = 0.342*[#  20]+0.033*[#  26]+0.033*[#  34]+0.027*[#  27]+0.027*[#  28]
          +0.027*[#  35]+0.027*[#  36]+0.027*[#  22]+0.027*[#  30]+0.002*[#  14]
          +0.001*[#  15]+0.001*[#  16]
    |psi|^2 = 0.578
==== e(  37) =     2.67073 eV ==== 
     psi = 0.030*[#  19]+0.004*[#  23]+0.004*[#  31]+0.003*[#  21]+0.003*[#  29]
          
    |psi|^2 = 0.046
==== e(  38) =     2.76154 eV ==== 
     psi = 0.026*[#  20]+0.004*[#  26]+0.004*[#  34]+0.003*[#  22]+0.003*[#  30]
          
    |psi|^2 = 0.041
==== e(  39) =     3.00446 eV ==== 
     psi = 0.001*[#  19]
    |psi|^2 = 0.006
==== e(  40) =     3.10413 eV ==== 
     psi = 0.004*[#  20]+0.002*[#  17]+0.002*[#  18]
    |psi|^2 = 0.012

 k =   0.0000000000  0.2886751346  0.0000000000
==== e(   1) =  -105.99999 eV ==== 
     psi = 0.995*[#   1]+0.001*[#  23]+0.001*[#  31]
    |psi|^2 = 1.000
==== e(   2) =  -104.62941 eV ==== 
     psi = 0.995*[#   2]+0.001*[#  26]+0.001*[#  34]
    |psi|^2 = 1.000
==== e(   3) =   -66.47363 eV ==== 
     psi = 0.999*[#   3]
    |psi|^2 = 1.000
==== e(   4) =   -66.42048 eV ==== 
     psi = 0.500*[#   4]+0.500*[#   5]
    |psi|^2 = 1.000
==== e(   5) =   -66.42030 eV ==== 
     psi = 0.500*[#   4]+0.500*[#   5]
    |psi|^2 = 1.000
==== e(   6) =   -64.96425 eV ==== 
     psi = 0.999*[#   6]
    |psi|^2 = 1.000
==== e(   7) =   -64.95354 eV ==== 
     psi = 0.499*[#   7]+0.499*[#   8]
    |psi|^2 = 1.000
==== e(   8) =   -64.95333 eV ==== 
     psi = 0.500*[#   7]+0.500*[#   8]
    |psi|^2 = 1.000
==== e(   9) =   -15.35291 eV ==== 
     psi = 0.405*[#  21]+0.405*[#  29]+0.163*[#  19]+0.005*[#  23]+0.005*[#  31]
          +0.004*[#  24]+0.004*[#  25]+0.004*[#  32]+0.004*[#  33]
    |psi|^2 = 0.999
==== e(  10) =   -15.12036 eV ==== 
     psi = 0.402*[#  22]+0.402*[#  30]+0.167*[#  20]+0.005*[#  26]+0.005*[#  34]
          +0.004*[#  27]+0.004*[#  28]+0.004*[#  35]+0.004*[#  36]
    |psi|^2 = 0.999
==== e(  11) =   -14.63466 eV ==== 
     psi = 0.487*[#  21]+0.487*[#  29]+0.004*[#  10]+0.004*[#  11]+0.002*[#  12]
          +0.002*[#  13]+0.002*[#  24]+0.002*[#  25]+0.002*[#  32]+0.002*[#  33]
          
    |psi|^2 = 0.998
==== e(  12) =   -14.37101 eV ==== 
     psi = 0.488*[#  22]+0.488*[#  30]+0.004*[#  15]+0.004*[#  16]+0.002*[#  27]
          +0.002*[#  28]+0.002*[#  35]+0.002*[#  36]+0.002*[#  17]+0.002*[#  18]
          
    |psi|^2 = 0.998
==== e(  13) =    -6.55607 eV ==== 
     psi = 0.277*[#  23]+0.277*[#  31]+0.135*[#  19]+0.045*[#  21]+0.045*[#  29]
          +0.039*[#   9]+0.038*[#  24]+0.038*[#  25]+0.038*[#  32]+0.038*[#  33]
          +0.010*[#  12]+0.010*[#  13]+0.002*[#   1]+0.002*[#  10]+0.002*[#  11]
          
    |psi|^2 = 0.994
==== e(  14) =    -6.35693 eV ==== 
     psi = 0.279*[#  26]+0.279*[#  34]+0.142*[#  20]+0.048*[#  22]+0.048*[#  30]
          +0.038*[#  27]+0.038*[#  28]+0.038*[#  35]+0.038*[#  36]+0.028*[#  14]
          +0.005*[#  17]+0.005*[#  18]+0.003*[#  15]+0.003*[#  16]+0.002*[#   2]
          
    |psi|^2 = 0.994
==== e(  15) =    -6.27868 eV ==== 
     psi = 0.128*[#  12]+0.128*[#  13]+0.112*[#  24]+0.112*[#  25]+0.112*[#  32]
          +0.112*[#  33]+0.071*[#  23]+0.071*[#  31]+0.068*[#  10]+0.068*[#  11]
          +0.004*[#   9]
    |psi|^2 = 0.989
==== e(  16) =    -5.78147 eV ==== 
     psi = 0.236*[#  10]+0.236*[#  11]+0.136*[#  12]+0.136*[#  13]+0.063*[#  24]
          +0.063*[#  25]+0.063*[#  32]+0.063*[#  33]
    |psi|^2 = 0.995
==== e(  17) =    -5.74625 eV ==== 
     psi = 0.156*[#  27]+0.156*[#  28]+0.156*[#  35]+0.156*[#  36]+0.093*[#  26]
          +0.093*[#  34]+0.070*[#  17]+0.070*[#  18]+0.015*[#  14]+0.003*[#  15]
          +0.003*[#  16]+0.002*[#  20]+0.002*[#  22]+0.002*[#  30]
    |psi|^2 = 0.979
==== e(  18) =    -5.51819 eV ==== 
     psi = 0.123*[#   9]+0.120*[#  10]+0.120*[#  11]+0.109*[#  24]+0.109*[#  25]
          +0.109*[#  32]+0.109*[#  33]+0.078*[#  23]+0.078*[#  31]+0.018*[#  19]
          +0.005*[#  21]+0.005*[#  29]
    |psi|^2 = 0.985
==== e(  19) =    -4.92457 eV ==== 
     psi = 0.137*[#  27]+0.137*[#  28]+0.137*[#  35]+0.137*[#  36]+0.108*[#  14]
          +0.078*[#  26]+0.078*[#  34]+0.061*[#  15]+0.061*[#  16]+0.020*[#  20]
          +0.010*[#  17]+0.010*[#  18]+0.006*[#  22]+0.006*[#  30]
    |psi|^2 = 0.986
==== e(  20) =    -4.53136 eV ==== 
     psi = 0.145*[#  27]+0.145*[#  28]+0.145*[#  35]+0.145*[#  36]+0.123*[#  17]
          +0.123*[#  18]+0.079*[#  15]+0.079*[#  16]
    |psi|^2 = 0.986
==== e(  21) =    -4.47559 eV ==== 
     psi = 0.172*[#  12]+0.172*[#  13]+0.156*[#  10]+0.156*[#  11]+0.083*[#  24]
          +0.083*[#  25]+0.083*[#  32]+0.083*[#  33]
    |psi|^2 = 0.987
==== e(  22) =    -4.21235 eV ==== 
     psi = 0.339*[#   9]+0.212*[#  10]+0.212*[#  11]+0.063*[#  12]+0.063*[#  13]
          +0.022*[#  19]+0.014*[#  24]+0.014*[#  25]+0.014*[#  32]+0.014*[#  33]
          +0.007*[#  21]+0.007*[#  29]+0.004*[#  23]+0.004*[#  31]
    |psi|^2 = 0.988
==== e(  23) =    -3.90512 eV ==== 
     psi = 0.135*[#  12]+0.135*[#  13]+0.124*[#  23]+0.124*[#  31]+0.110*[#  24]
          +0.110*[#  25]+0.110*[#  32]+0.110*[#  33]+0.017*[#   9]+0.003*[#  21]
          +0.003*[#  29]+0.002*[#  19]
    |psi|^2 = 0.984
==== e(  24) =    -3.88229 eV ==== 
     psi = 0.190*[#  15]+0.190*[#  16]+0.123*[#  27]+0.123*[#  28]+0.123*[#  35]
          +0.123*[#  36]+0.055*[#  17]+0.055*[#  18]
    |psi|^2 = 0.983
==== e(  25) =    -3.60218 eV ==== 
     psi = 0.421*[#   9]+0.115*[#  23]+0.115*[#  31]+0.069*[#  12]+0.069*[#  13]
          +0.037*[#  10]+0.037*[#  11]+0.032*[#  24]+0.032*[#  25]+0.032*[#  32]
          +0.032*[#  33]+0.002*[#  19]
    |psi|^2 = 0.994
==== e(  26) =    -3.50956 eV ==== 
     psi = 0.234*[#  26]+0.234*[#  34]+0.094*[#  17]+0.094*[#  18]+0.057*[#  27]
          +0.057*[#  28]+0.057*[#  35]+0.057*[#  36]+0.049*[#  14]+0.020*[#  15]
          +0.020*[#  16]+0.008*[#  20]
    |psi|^2 = 0.981
==== e(  27) =    -3.42119 eV ==== 
     psi = 0.164*[#  12]+0.164*[#  13]+0.152*[#  24]+0.152*[#  25]+0.152*[#  32]
          +0.152*[#  33]+0.023*[#  10]+0.023*[#  11]
    |psi|^2 = 0.981
==== e(  28) =    -3.31378 eV ==== 
     psi = 0.205*[#  14]+0.188*[#  15]+0.188*[#  16]+0.116*[#  26]+0.116*[#  34]
          +0.063*[#  17]+0.063*[#  18]+0.011*[#  20]+0.007*[#  27]+0.007*[#  28]
          +0.007*[#  35]+0.007*[#  36]+0.003*[#  22]+0.003*[#  30]
    |psi|^2 = 0.983
==== e(  29) =    -2.95978 eV ==== 
     psi = 0.267*[#  23]+0.267*[#  31]+0.088*[#  12]+0.088*[#  13]+0.052*[#  10]
          +0.052*[#  11]+0.049*[#   9]+0.030*[#  24]+0.030*[#  25]+0.030*[#  32]
          +0.030*[#  33]+0.007*[#  21]+0.007*[#  29]
    |psi|^2 = 0.995
==== e(  30) =    -2.91100 eV ==== 
     psi = 0.571*[#  14]+0.100*[#  17]+0.100*[#  18]+0.045*[#  26]+0.045*[#  34]
          +0.025*[#  15]+0.025*[#  16]+0.020*[#  27]+0.020*[#  28]+0.020*[#  35]
          +0.020*[#  36]+0.001*[#  20]
    |psi|^2 = 0.992
==== e(  31) =    -2.86050 eV ==== 
     psi = 0.243*[#  17]+0.243*[#  18]+0.099*[#  27]+0.099*[#  28]+0.099*[#  35]
          +0.099*[#  36]+0.050*[#  15]+0.050*[#  16]
    |psi|^2 = 0.984
==== e(  32) =    -2.19102 eV ==== 
     psi = 0.195*[#  24]+0.195*[#  25]+0.195*[#  32]+0.195*[#  33]+0.083*[#  10]
          +0.083*[#  11]+0.026*[#  12]+0.026*[#  13]
    |psi|^2 = 0.998
==== e(  33) =    -1.61369 eV ==== 
     psi = 0.187*[#  15]+0.187*[#  16]+0.145*[#  17]+0.145*[#  18]+0.088*[#  26]
          +0.088*[#  34]+0.029*[#  27]+0.029*[#  28]+0.029*[#  35]+0.029*[#  36]
          +0.011*[#  14]+0.010*[#  22]+0.010*[#  30]
    |psi|^2 = 0.986
==== e(  34) =    -1.05465 eV ==== 
     psi = 0.176*[#  15]+0.176*[#  16]+0.124*[#  27]+0.124*[#  28]+0.124*[#  35]
          +0.124*[#  36]+0.073*[#  17]+0.073*[#  18]
    |psi|^2 = 0.993
==== e(  35) =     1.95424 eV ==== 
     psi = 0.308*[#  19]+0.029*[#  24]+0.029*[#  25]+0.029*[#  32]+0.029*[#  33]
          +0.022*[#  23]+0.022*[#  31]+0.016*[#  21]+0.016*[#  29]+0.001*[#  12]
          +0.001*[#  13]+0.001*[#   1]+0.001*[#   9]
    |psi|^2 = 0.507
==== e(  36) =     2.15432 eV ==== 
     psi = 0.278*[#  20]+0.030*[#  27]+0.030*[#  28]+0.030*[#  35]+0.030*[#  36]
          +0.020*[#  26]+0.020*[#  34]+0.014*[#  22]+0.014*[#  30]+0.002*[#  17]
          +0.002*[#  18]+0.002*[#  14]
    |psi|^2 = 0.473
==== e(  37) =     2.93234 eV ==== 
     psi = 0.114*[#  19]+0.011*[#  23]+0.011*[#  31]+0.008*[#  21]+0.008*[#  29]
          +0.003*[#  24]+0.003*[#  25]+0.003*[#  32]+0.003*[#  33]
    |psi|^2 = 0.168
==== e(  38) =     3.05153 eV ==== 
     psi = 0.126*[#  20]+0.013*[#  26]+0.013*[#  34]+0.009*[#  22]+0.009*[#  30]
          +0.004*[#  27]+0.004*[#  28]+0.004*[#  35]+0.004*[#  36]+0.001*[#  15]
          +0.001*[#  16]+0.001*[#  17]+0.001*[#  18]
    |psi|^2 = 0.190
==== e(  39) =     3.22579 eV ==== 
     psi = 0.005*[#  19]+0.001*[#  12]+0.001*[#  13]
    |psi|^2 = 0.013
==== e(  40) =     3.33709 eV ==== 
     psi = 0.002*[#  17]+0.002*[#  18]+0.002*[#  20]
    |psi|^2 = 0.012

 k =   0.0000000000  0.3608439182  0.0000000000
==== e(   1) =  -105.99999 eV ==== 
     psi = 0.995*[#   1]
    |psi|^2 = 1.000
==== e(   2) =  -104.62941 eV ==== 
     psi = 0.995*[#   2]
    |psi|^2 = 1.000
==== e(   3) =   -66.47362 eV ==== 
     psi = 0.999*[#   3]
    |psi|^2 = 1.000
==== e(   4) =   -66.42057 eV ==== 
     psi = 0.499*[#   4]+0.499*[#   5]
    |psi|^2 = 1.000
==== e(   5) =   -66.42032 eV ==== 
     psi = 0.500*[#   4]+0.500*[#   5]
    |psi|^2 = 1.000
==== e(   6) =   -64.96423 eV ==== 
     psi = 0.999*[#   6]
    |psi|^2 = 1.000
==== e(   7) =   -64.95364 eV ==== 
     psi = 0.499*[#   7]+0.499*[#   8]
    |psi|^2 = 1.000
==== e(   8) =   -64.95336 eV ==== 
     psi = 0.500*[#   7]+0.500*[#   8]
    |psi|^2 = 1.000
==== e(   9) =   -15.14730 eV ==== 
     psi = 0.426*[#  21]+0.426*[#  29]+0.117*[#  19]+0.005*[#  23]+0.005*[#  31]
          +0.004*[#  24]+0.004*[#  25]+0.004*[#  32]+0.004*[#  33]
    |psi|^2 = 0.999
==== e(  10) =   -14.91027 eV ==== 
     psi = 0.424*[#  22]+0.424*[#  30]+0.120*[#  20]+0.005*[#  26]+0.005*[#  34]
          +0.004*[#  27]+0.004*[#  28]+0.004*[#  35]+0.004*[#  36]
    |psi|^2 = 0.999
==== e(  11) =   -14.55710 eV ==== 
     psi = 0.486*[#  21]+0.486*[#  29]+0.006*[#  10]+0.006*[#  11]+0.003*[#  12]
          +0.003*[#  13]+0.002*[#  19]+0.001*[#  24]+0.001*[#  25]+0.001*[#  32]
          +0.001*[#  33]
    |psi|^2 = 0.999
==== e(  12) =   -14.29078 eV ==== 
     psi = 0.487*[#  22]+0.487*[#  30]+0.005*[#  15]+0.005*[#  16]+0.002*[#  17]
          +0.002*[#  18]+0.002*[#  20]+0.002*[#  27]+0.002*[#  28]+0.002*[#  35]
          +0.002*[#  36]
    |psi|^2 = 0.998
==== e(  13) =    -6.78747 eV ==== 
     psi = 0.162*[#  19]+0.123*[#  24]+0.123*[#  25]+0.123*[#  32]+0.123*[#  33]
          +0.100*[#  23]+0.100*[#  31]+0.035*[#  21]+0.035*[#  29]+0.027*[#  12]
          +0.027*[#  13]+0.006*[#  10]+0.006*[#  11]+0.002*[#   1]+0.001*[#   9]
          
    |psi|^2 = 0.990
==== e(  14) =    -6.58867 eV ==== 
     psi = 0.175*[#  20]+0.120*[#  27]+0.120*[#  28]+0.120*[#  35]+0.120*[#  36]
          +0.104*[#  26]+0.104*[#  34]+0.039*[#  22]+0.039*[#  30]+0.016*[#  17]
          +0.016*[#  18]+0.007*[#  15]+0.007*[#  16]+0.002*[#   2]+0.001*[#  14]
          
    |psi|^2 = 0.990
==== e(  15) =    -6.40765 eV ==== 
     psi = 0.125*[#  24]+0.125*[#  25]+0.125*[#  32]+0.125*[#  33]+0.111*[#  23]
          +0.111*[#  31]+0.066*[#  12]+0.066*[#  13]+0.051*[#  10]+0.051*[#  11]
          +0.012*[#  19]+0.007*[#  21]+0.007*[#  29]+0.006*[#   9]
    |psi|^2 = 0.989
==== e(  16) =    -6.02606 eV ==== 
     psi = 0.159*[#  26]+0.159*[#  34]+0.140*[#  27]+0.140*[#  28]+0.140*[#  35]
          +0.140*[#  36]+0.028*[#  17]+0.028*[#  18]+0.015*[#  14]+0.008*[#  22]
          +0.008*[#  30]+0.006*[#  20]+0.005*[#  15]+0.005*[#  16]
    |psi|^2 = 0.982
==== e(  17) =    -5.77316 eV ==== 
     psi = 0.259*[#  10]+0.259*[#  11]+0.112*[#  12]+0.112*[#  13]+0.063*[#  24]
          +0.063*[#  25]+0.063*[#  32]+0.063*[#  33]
    |psi|^2 = 0.996
==== e(  18) =    -5.69692 eV ==== 
     psi = 0.214*[#  23]+0.214*[#  31]+0.132*[#   9]+0.096*[#  10]+0.096*[#  11]
          +0.048*[#  24]+0.048*[#  25]+0.048*[#  32]+0.048*[#  33]+0.020*[#  12]
          +0.020*[#  13]+0.002*[#  21]+0.002*[#  29]
    |psi|^2 = 0.989
==== e(  19) =    -5.11129 eV ==== 
     psi = 0.188*[#  26]+0.188*[#  34]+0.117*[#  14]+0.095*[#  27]+0.095*[#  28]
          +0.095*[#  35]+0.095*[#  36]+0.040*[#  15]+0.040*[#  16]+0.017*[#  17]
          +0.017*[#  18]+0.002*[#  20]
    |psi|^2 = 0.987
==== e(  20) =    -4.51766 eV ==== 
     psi = 0.153*[#  27]+0.153*[#  28]+0.153*[#  35]+0.153*[#  36]+0.106*[#  15]
          +0.106*[#  16]+0.081*[#  17]+0.081*[#  18]
    |psi|^2 = 0.986
==== e(  21) =    -4.51454 eV ==== 
     psi = 0.149*[#  12]+0.149*[#  13]+0.119*[#  24]+0.119*[#  25]+0.119*[#  32]
          +0.119*[#  33]+0.106*[#  10]+0.106*[#  11]
    |psi|^2 = 0.984
==== e(  22) =    -4.36581 eV ==== 
     psi = 0.173*[#   9]+0.118*[#  10]+0.118*[#  11]+0.088*[#  24]+0.088*[#  25]
          +0.088*[#  32]+0.088*[#  33]+0.077*[#  23]+0.077*[#  31]+0.028*[#  12]
          +0.028*[#  13]+0.008*[#  21]+0.008*[#  29]
    |psi|^2 = 0.990
==== e(  23) =    -4.20397 eV ==== 
     psi = 0.179*[#  12]+0.179*[#  13]+0.160*[#   9]+0.123*[#  10]+0.123*[#  11]
          +0.053*[#  23]+0.053*[#  31]+0.023*[#  19]+0.022*[#  24]+0.022*[#  25]
          +0.022*[#  32]+0.022*[#  33]+0.002*[#  21]+0.002*[#  29]
    |psi|^2 = 0.985
==== e(  24) =    -4.04253 eV ==== 
     psi = 0.155*[#  27]+0.155*[#  28]+0.155*[#  35]+0.155*[#  36]+0.141*[#  15]
          +0.141*[#  16]+0.038*[#  17]+0.038*[#  18]
    |psi|^2 = 0.980
==== e(  25) =    -3.76591 eV ==== 
     psi = 0.257*[#  26]+0.257*[#  34]+0.109*[#  17]+0.109*[#  18]+0.054*[#  27]
          +0.054*[#  28]+0.054*[#  35]+0.054*[#  36]+0.021*[#  14]+0.008*[#  20]
          +0.001*[#  22]+0.001*[#  30]
    |psi|^2 = 0.984
==== e(  26) =    -3.68767 eV ==== 
     psi = 0.471*[#   9]+0.089*[#  23]+0.089*[#  31]+0.089*[#  12]+0.089*[#  13]
          +0.045*[#  10]+0.045*[#  11]+0.018*[#  24]+0.018*[#  25]+0.018*[#  32]
          +0.018*[#  33]+0.003*[#  19]
    |psi|^2 = 0.994
==== e(  27) =    -3.64658 eV ==== 
     psi = 0.224*[#  12]+0.224*[#  13]+0.119*[#  24]+0.119*[#  25]+0.119*[#  32]
          +0.119*[#  33]+0.030*[#  10]+0.030*[#  11]
    |psi|^2 = 0.984
==== e(  28) =    -3.32883 eV ==== 
     psi = 0.239*[#  14]+0.223*[#  15]+0.223*[#  16]+0.068*[#  17]+0.068*[#  18]
          +0.066*[#  26]+0.066*[#  34]+0.014*[#  20]+0.003*[#  22]+0.003*[#  30]
          +0.002*[#  27]+0.002*[#  28]+0.002*[#  35]+0.002*[#  36]
    |psi|^2 = 0.981
==== e(  29) =    -2.98151 eV ==== 
     psi = 0.320*[#  17]+0.320*[#  18]+0.062*[#  27]+0.062*[#  28]+0.062*[#  35]
          +0.062*[#  36]+0.050*[#  15]+0.050*[#  16]
    |psi|^2 = 0.987
==== e(  30) =    -2.97243 eV ==== 
     psi = 0.579*[#  14]+0.113*[#  17]+0.113*[#  18]+0.043*[#  26]+0.043*[#  34]
          +0.028*[#  15]+0.028*[#  16]+0.010*[#  27]+0.010*[#  28]+0.010*[#  35]
          +0.010*[#  36]+0.004*[#  20]
    |psi|^2 = 0.993
==== e(  31) =    -2.79737 eV ==== 
     psi = 0.302*[#  23]+0.302*[#  31]+0.080*[#  12]+0.080*[#  13]+0.050*[#  10]
          +0.050*[#  11]+0.049*[#   9]+0.018*[#  24]+0.018*[#  25]+0.018*[#  32]
          +0.018*[#  33]+0.005*[#  21]+0.005*[#  29]
    |psi|^2 = 0.995
==== e(  32) =    -2.22767 eV ==== 
     psi = 0.191*[#  24]+0.191*[#  25]+0.191*[#  32]+0.191*[#  33]+0.103*[#  10]
          +0.103*[#  11]+0.014*[#  12]+0.014*[#  13]
    |psi|^2 = 0.998
==== e(  33) =    -1.49838 eV ==== 
     psi = 0.185*[#  15]+0.185*[#  16]+0.134*[#  17]+0.134*[#  18]+0.125*[#  26]
          +0.125*[#  34]+0.017*[#  27]+0.017*[#  28]+0.017*[#  35]+0.017*[#  36]
          +0.016*[#  14]+0.009*[#  22]+0.009*[#  30]
    |psi|^2 = 0.987
==== e(  34) =    -1.07422 eV ==== 
     psi = 0.198*[#  15]+0.198*[#  16]+0.121*[#  27]+0.121*[#  28]+0.121*[#  35]
          +0.121*[#  36]+0.056*[#  17]+0.056*[#  18]
    |psi|^2 = 0.994
==== e(  35) =     1.49109 eV ==== 
     psi = 0.384*[#  19]+0.036*[#  24]+0.036*[#  25]+0.036*[#  32]+0.036*[#  33]
          +0.020*[#  23]+0.020*[#  31]+0.013*[#  21]+0.013*[#  29]+0.003*[#  12]
          +0.003*[#  13]+0.001*[#   1]
    |psi|^2 = 0.602
==== e(  36) =     1.70337 eV ==== 
     psi = 0.360*[#  20]+0.037*[#  27]+0.037*[#  28]+0.037*[#  35]+0.037*[#  36]
          +0.019*[#  26]+0.019*[#  34]+0.013*[#  22]+0.013*[#  30]+0.004*[#  17]
          +0.004*[#  18]+0.001*[#   2]
    |psi|^2 = 0.583
==== e(  37) =     3.05931 eV ==== 
     psi = 0.084*[#  19]+0.008*[#  23]+0.008*[#  31]+0.004*[#  21]+0.004*[#  29]
          +0.002*[#  24]+0.002*[#  25]+0.002*[#  32]+0.002*[#  33]+0.002*[#  12]
          +0.002*[#  13]+0.001*[#  10]+0.001*[#  11]
    |psi|^2 = 0.125
==== e(  38) =     3.20630 eV ==== 
     psi = 0.096*[#  20]+0.010*[#  26]+0.010*[#  34]+0.005*[#  22]+0.005*[#  30]
          +0.003*[#  17]+0.003*[#  18]+0.003*[#  27]+0.003*[#  28]+0.003*[#  35]
          +0.003*[#  36]+0.002*[#  15]+0.002*[#  16]
    |psi|^2 = 0.147
==== e(  39) =     3.48113 eV ==== 
     psi = 0.023*[#  19]+0.002*[#  23]+0.002*[#  31]+0.002*[#  24]+0.002*[#  25]
          +0.002*[#  32]+0.002*[#  33]+0.001*[#  21]+0.001*[#  29]
    |psi|^2 = 0.040
==== e(  40) =     3.61610 eV ==== 
     psi = 0.020*[#  20]+0.002*[#  17]+0.002*[#  18]+0.002*[#  26]+0.002*[#  34]
          +0.002*[#  27]+0.002*[#  28]+0.002*[#  35]+0.002*[#  36]+0.001*[#  14]
          +0.001*[#  22]+0.001*[#  30]
    |psi|^2 = 0.039

 k =   0.0000000000  0.4330127019  0.0000000000
==== e(   1) =  -105.99999 eV ==== 
     psi = 0.995*[#   1]
    |psi|^2 = 1.000
==== e(   2) =  -104.62940 eV ==== 
     psi = 0.995*[#   2]
    |psi|^2 = 1.000
==== e(   3) =   -66.47360 eV ==== 
     psi = 0.999*[#   3]
    |psi|^2 = 1.000
==== e(   4) =   -66.42065 eV ==== 
     psi = 0.499*[#   4]+0.499*[#   5]
    |psi|^2 = 1.000
==== e(   5) =   -66.42034 eV ==== 
     psi = 0.500*[#   4]+0.500*[#   5]
    |psi|^2 = 1.000
==== e(   6) =   -64.96422 eV ==== 
     psi = 0.999*[#   6]
    |psi|^2 = 1.000
==== e(   7) =   -64.95373 eV ==== 
     psi = 0.499*[#   7]+0.499*[#   8]
    |psi|^2 = 1.000
==== e(   8) =   -64.95338 eV ==== 
     psi = 0.500*[#   7]+0.500*[#   8]
    |psi|^2 = 1.000
==== e(   9) =   -14.94281 eV ==== 
     psi = 0.451*[#  21]+0.451*[#  29]+0.070*[#  19]+0.004*[#  23]+0.004*[#  31]
          +0.004*[#  24]+0.004*[#  25]+0.004*[#  32]+0.004*[#  33]
    |psi|^2 = 0.999
==== e(  10) =   -14.70066 eV ==== 
     psi = 0.449*[#  22]+0.449*[#  30]+0.072*[#  20]+0.005*[#  26]+0.005*[#  34]
          +0.004*[#  27]+0.004*[#  28]+0.004*[#  35]+0.004*[#  36]
    |psi|^2 = 0.998
==== e(  11) =   -14.50499 eV ==== 
     psi = 0.484*[#  21]+0.484*[#  29]+0.007*[#  10]+0.007*[#  11]+0.006*[#  19]
          +0.004*[#  12]+0.004*[#  13]
    |psi|^2 = 0.999
==== e(  12) =   -14.23697 eV ==== 
     psi = 0.486*[#  22]+0.486*[#  30]+0.007*[#  20]+0.006*[#  15]+0.006*[#  16]
          +0.003*[#  17]+0.003*[#  18]
    |psi|^2 = 0.999
==== e(  13) =    -7.18502 eV ==== 
     psi = 0.180*[#  19]+0.155*[#  24]+0.155*[#  25]+0.155*[#  32]+0.155*[#  33]
          +0.043*[#  23]+0.043*[#  31]+0.021*[#  21]+0.021*[#  29]+0.016*[#  12]
          +0.016*[#  13]+0.014*[#  10]+0.014*[#  11]+0.002*[#   1]
    |psi|^2 = 0.991
==== e(  14) =    -6.98978 eV ==== 
     psi = 0.189*[#  20]+0.154*[#  27]+0.154*[#  28]+0.154*[#  35]+0.154*[#  36]
          +0.045*[#  26]+0.045*[#  34]+0.023*[#  22]+0.023*[#  30]+0.013*[#  17]
          +0.013*[#  18]+0.010*[#  15]+0.010*[#  16]+0.002*[#   2]
    |psi|^2 = 0.991
==== e(  15) =    -6.50819 eV ==== 
     psi = 0.159*[#  24]+0.159*[#  25]+0.159*[#  32]+0.159*[#  33]+0.097*[#  23]
          +0.097*[#  31]+0.036*[#  12]+0.036*[#  13]+0.031*[#  10]+0.031*[#  11]
          +0.009*[#  19]+0.006*[#  21]+0.006*[#  29]+0.001*[#   9]
    |psi|^2 = 0.987
==== e(  16) =    -6.21071 eV ==== 
     psi = 0.167*[#  27]+0.167*[#  28]+0.167*[#  35]+0.167*[#  36]+0.125*[#  26]
          +0.125*[#  34]+0.011*[#  17]+0.011*[#  18]+0.009*[#  22]+0.009*[#  30]
          +0.009*[#  20]+0.005*[#  15]+0.005*[#  16]+0.004*[#  14]
    |psi|^2 = 0.983
==== e(  17) =    -5.76996 eV ==== 
     psi = 0.280*[#  10]+0.280*[#  11]+0.091*[#  12]+0.091*[#  13]+0.063*[#  24]
          +0.063*[#  25]+0.063*[#  32]+0.063*[#  33]
    |psi|^2 = 0.996
==== e(  18) =    -5.63118 eV ==== 
     psi = 0.246*[#  23]+0.246*[#  31]+0.099*[#   9]+0.097*[#  10]+0.097*[#  11]
          +0.064*[#  12]+0.064*[#  13]+0.016*[#  24]+0.016*[#  25]+0.016*[#  32]
          +0.016*[#  33]+0.006*[#  21]+0.006*[#  29]
    |psi|^2 = 0.991
==== e(  19) =    -5.01218 eV ==== 
     psi = 0.280*[#  26]+0.280*[#  34]+0.114*[#  14]+0.052*[#  27]+0.052*[#  28]
          +0.052*[#  35]+0.052*[#  36]+0.025*[#  17]+0.025*[#  18]+0.025*[#  15]
          +0.025*[#  16]
    |psi|^2 = 0.986
==== e(  20) =    -4.62109 eV ==== 
     psi = 0.172*[#  23]+0.172*[#  31]+0.088*[#   9]+0.078*[#  24]+0.078*[#  25]
          +0.078*[#  32]+0.078*[#  33]+0.066*[#  12]+0.066*[#  13]+0.050*[#  10]
          +0.050*[#  11]+0.005*[#  21]+0.005*[#  29]+0.002*[#  19]
    |psi|^2 = 0.991
==== e(  21) =    -4.52147 eV ==== 
     psi = 0.162*[#  24]+0.162*[#  25]+0.162*[#  32]+0.162*[#  33]+0.108*[#  12]
          +0.108*[#  13]+0.059*[#  10]+0.059*[#  11]
    |psi|^2 = 0.980
==== e(  22) =    -4.50721 eV ==== 
     psi = 0.151*[#  27]+0.151*[#  28]+0.151*[#  35]+0.151*[#  36]+0.148*[#  15]
          +0.148*[#  16]+0.043*[#  17]+0.043*[#  18]
    |psi|^2 = 0.988
==== e(  23) =    -4.25805 eV ==== 
     psi = 0.292*[#   9]+0.190*[#  10]+0.190*[#  11]+0.104*[#  12]+0.104*[#  13]
          +0.029*[#  23]+0.029*[#  31]+0.020*[#  19]+0.005*[#  24]+0.005*[#  25]
          +0.005*[#  32]+0.005*[#  33]+0.003*[#  21]+0.003*[#  29]
    |psi|^2 = 0.984
==== e(  24) =    -4.16736 eV ==== 
     psi = 0.190*[#  27]+0.190*[#  28]+0.190*[#  35]+0.190*[#  36]+0.085*[#  15]
          +0.085*[#  16]+0.022*[#  17]+0.022*[#  18]
    |psi|^2 = 0.976
==== e(  25) =    -4.02796 eV ==== 
     psi = 0.280*[#  26]+0.280*[#  34]+0.107*[#  17]+0.107*[#  18]+0.045*[#  27]
          +0.045*[#  28]+0.045*[#  35]+0.045*[#  36]+0.018*[#  14]+0.008*[#  20]
          +0.002*[#  15]+0.002*[#  16]+0.002*[#  22]+0.002*[#  30]
    |psi|^2 = 0.986
==== e(  26) =    -3.85160 eV ==== 
     psi = 0.291*[#  12]+0.291*[#  13]+0.081*[#  24]+0.081*[#  25]+0.081*[#  32]
          +0.081*[#  33]+0.042*[#  10]+0.042*[#  11]
    |psi|^2 = 0.988
==== e(  27) =    -3.78971 eV ==== 
     psi = 0.458*[#   9]+0.122*[#  12]+0.122*[#  13]+0.068*[#  23]+0.068*[#  31]
          +0.053*[#  10]+0.053*[#  11]+0.010*[#  24]+0.010*[#  25]+0.010*[#  32]
          +0.010*[#  33]+0.010*[#  19]
    |psi|^2 = 0.994
==== e(  28) =    -3.33982 eV ==== 
     psi = 0.252*[#  14]+0.235*[#  15]+0.235*[#  16]+0.067*[#  17]+0.067*[#  18]
          +0.050*[#  26]+0.050*[#  34]+0.015*[#  20]+0.003*[#  22]+0.003*[#  30]
          
    |psi|^2 = 0.980
==== e(  29) =    -3.08530 eV ==== 
     psi = 0.386*[#  17]+0.386*[#  18]+0.048*[#  15]+0.048*[#  16]+0.031*[#  27]
          +0.031*[#  28]+0.031*[#  35]+0.031*[#  36]
    |psi|^2 = 0.991
==== e(  30) =    -3.05176 eV ==== 
     psi = 0.579*[#  14]+0.132*[#  17]+0.132*[#  18]+0.031*[#  26]+0.031*[#  34]
          +0.028*[#  15]+0.028*[#  16]+0.011*[#  20]+0.005*[#  27]+0.005*[#  28]
          +0.005*[#  35]+0.005*[#  36]
    |psi|^2 = 0.993
==== e(  31) =    -2.65245 eV ==== 
     psi = 0.300*[#  23]+0.300*[#  31]+0.078*[#  12]+0.078*[#  13]+0.056*[#   9]
          +0.053*[#  10]+0.053*[#  11]+0.017*[#  24]+0.017*[#  25]+0.017*[#  32]
          +0.017*[#  33]+0.004*[#  21]+0.004*[#  29]+0.001*[#  19]
    |psi|^2 = 0.995
==== e(  32) =    -2.25106 eV ==== 
     psi = 0.187*[#  24]+0.187*[#  25]+0.187*[#  32]+0.187*[#  33]+0.118*[#  10]
          +0.118*[#  11]+0.008*[#  12]+0.008*[#  13]
    |psi|^2 = 0.998
==== e(  33) =    -1.35799 eV ==== 
     psi = 0.181*[#  15]+0.181*[#  16]+0.141*[#  26]+0.141*[#  34]+0.126*[#  17]
          +0.126*[#  18]+0.021*[#  14]+0.014*[#  27]+0.014*[#  28]+0.014*[#  35]
          +0.014*[#  36]+0.008*[#  22]+0.008*[#  30]+0.002*[#  20]
    |psi|^2 = 0.989
==== e(  34) =    -1.08302 eV ==== 
     psi = 0.215*[#  15]+0.215*[#  16]+0.119*[#  27]+0.119*[#  28]+0.119*[#  35]
          +0.119*[#  36]+0.045*[#  17]+0.045*[#  18]
    |psi|^2 = 0.994
==== e(  35) =     1.13685 eV ==== 
     psi = 0.473*[#  19]+0.041*[#  24]+0.041*[#  25]+0.041*[#  32]+0.041*[#  33]
          +0.018*[#  23]+0.018*[#  31]+0.011*[#  21]+0.011*[#  29]+0.005*[#  12]
          +0.005*[#  13]+0.002*[#   1]
    |psi|^2 = 0.710
==== e(  36) =     1.36621 eV ==== 
     psi = 0.452*[#  20]+0.043*[#  27]+0.043*[#  28]+0.043*[#  35]+0.043*[#  36]
          +0.019*[#  26]+0.019*[#  34]+0.011*[#  22]+0.011*[#  30]+0.008*[#  17]
          +0.008*[#  18]+0.002*[#   2]
    |psi|^2 = 0.700
==== e(  37) =     3.05342 eV ==== 
     psi = 0.051*[#  19]+0.007*[#  23]+0.007*[#  31]+0.002*[#  21]+0.002*[#  29]
          +0.001*[#  12]+0.001*[#  13]+0.001*[#  10]+0.001*[#  11]+0.001*[#  24]
          +0.001*[#  25]+0.001*[#  32]+0.001*[#  33]
    |psi|^2 = 0.078
==== e(  38) =     3.20812 eV ==== 
     psi = 0.059*[#  20]+0.008*[#  26]+0.008*[#  34]+0.002*[#  22]+0.002*[#  30]
          +0.002*[#  15]+0.002*[#  16]+0.002*[#  17]+0.002*[#  18]+0.001*[#  27]
          +0.001*[#  28]+0.001*[#  35]+0.001*[#  36]
    |psi|^2 = 0.094
==== e(  39) =     3.49993 eV ==== 
     psi = 0.004*[#  19]+0.002*[#  24]+0.002*[#  25]+0.002*[#  32]+0.002*[#  33]
          +0.002*[#  12]+0.002*[#  13]+0.001*[#   9]
    |psi|^2 = 0.017
==== e(  40) =     3.66811 eV ==== 
     psi = 0.003*[#  20]+0.003*[#  17]+0.003*[#  18]+0.002*[#  14]+0.002*[#  27]
          +0.002*[#  28]+0.002*[#  35]+0.002*[#  36]
    |psi|^2 = 0.021

 k =   0.0000000000  0.5051814855  0.0000000000
==== e(   1) =  -105.99998 eV ==== 
     psi = 0.995*[#   1]
    |psi|^2 = 1.000
==== e(   2) =  -104.62940 eV ==== 
     psi = 0.995*[#   2]
    |psi|^2 = 1.000
==== e(   3) =   -66.47359 eV ==== 
     psi = 0.999*[#   3]
    |psi|^2 = 1.000
==== e(   4) =   -66.42070 eV ==== 
     psi = 0.499*[#   4]+0.499*[#   5]
    |psi|^2 = 1.000
==== e(   5) =   -66.42035 eV ==== 
     psi = 0.500*[#   4]+0.500*[#   5]
    |psi|^2 = 1.000
==== e(   6) =   -64.96421 eV ==== 
     psi = 0.999*[#   6]
    |psi|^2 = 1.000
==== e(   7) =   -64.95379 eV ==== 
     psi = 0.499*[#   7]+0.499*[#   8]
    |psi|^2 = 1.000
==== e(   8) =   -64.95339 eV ==== 
     psi = 0.500*[#   7]+0.500*[#   8]
    |psi|^2 = 1.000
==== e(   9) =   -14.77296 eV ==== 
     psi = 0.476*[#  21]+0.476*[#  29]+0.027*[#  19]+0.004*[#  23]+0.004*[#  31]
          +0.002*[#  24]+0.002*[#  25]+0.002*[#  32]+0.002*[#  33]
    |psi|^2 = 0.998
==== e(  10) =   -14.52636 eV ==== 
     psi = 0.475*[#  22]+0.475*[#  30]+0.027*[#  20]+0.005*[#  26]+0.005*[#  34]
          +0.002*[#  27]+0.002*[#  28]+0.002*[#  35]+0.002*[#  36]
    |psi|^2 = 0.998
==== e(  11) =   -14.49354 eV ==== 
     psi = 0.478*[#  21]+0.478*[#  29]+0.018*[#  19]+0.008*[#  10]+0.008*[#  11]
          +0.005*[#  12]+0.005*[#  13]
    |psi|^2 = 0.999
==== e(  12) =   -14.22498 eV ==== 
     psi = 0.479*[#  22]+0.479*[#  30]+0.019*[#  20]+0.007*[#  15]+0.007*[#  16]
          +0.004*[#  17]+0.004*[#  18]
    |psi|^2 = 0.999
==== e(  13) =    -7.48285 eV ==== 
     psi = 0.197*[#  19]+0.164*[#  24]+0.164*[#  25]+0.164*[#  32]+0.164*[#  33]
          +0.030*[#  23]+0.030*[#  31]+0.019*[#  10]+0.019*[#  11]+0.011*[#  21]
          +0.011*[#  29]+0.010*[#  12]+0.010*[#  13]+0.002*[#   1]+0.001*[#   9]
          
    |psi|^2 = 0.994
==== e(  14) =    -7.28841 eV ==== 
     psi = 0.207*[#  20]+0.163*[#  27]+0.163*[#  28]+0.163*[#  35]+0.163*[#  36]
          +0.032*[#  26]+0.032*[#  34]+0.012*[#  15]+0.012*[#  16]+0.012*[#  22]
          +0.012*[#  30]+0.010*[#  17]+0.010*[#  18]+0.002*[#   2]+0.001*[#  14]
          
    |psi|^2 = 0.993
==== e(  15) =    -6.58177 eV ==== 
     psi = 0.188*[#  24]+0.188*[#  25]+0.188*[#  32]+0.188*[#  33]+0.091*[#  23]
          +0.091*[#  31]+0.011*[#  12]+0.011*[#  13]+0.009*[#  10]+0.009*[#  11]
          +0.005*[#  21]+0.005*[#  29]+0.003*[#  19]
    |psi|^2 = 0.986
==== e(  16) =    -6.35704 eV ==== 
     psi = 0.189*[#  27]+0.189*[#  28]+0.189*[#  35]+0.189*[#  36]+0.099*[#  26]
          +0.099*[#  34]+0.007*[#  22]+0.007*[#  30]+0.003*[#  17]+0.003*[#  18]
          +0.003*[#  20]+0.002*[#  15]+0.002*[#  16]
    |psi|^2 = 0.983
==== e(  17) =    -5.77019 eV ==== 
     psi = 0.294*[#  10]+0.294*[#  11]+0.078*[#  12]+0.078*[#  13]+0.063*[#  24]
          +0.063*[#  25]+0.063*[#  32]+0.063*[#  33]
    |psi|^2 = 0.997
==== e(  18) =    -5.58223 eV ==== 
     psi = 0.192*[#  23]+0.192*[#  31]+0.132*[#  12]+0.132*[#  13]+0.124*[#  10]
          +0.124*[#  11]+0.056*[#   9]+0.008*[#  21]+0.008*[#  29]+0.007*[#  24]
          +0.007*[#  25]+0.007*[#  32]+0.007*[#  33]
    |psi|^2 = 0.995
==== e(  19) =    -4.78798 eV ==== 
     psi = 0.306*[#  26]+0.306*[#  34]+0.104*[#  14]+0.051*[#  17]+0.051*[#  18]
          +0.031*[#  27]+0.031*[#  28]+0.031*[#  35]+0.031*[#  36]+0.021*[#  15]
          +0.021*[#  16]+0.002*[#  22]+0.002*[#  30]
    |psi|^2 = 0.986
==== e(  20) =    -4.68416 eV ==== 
     psi = 0.306*[#  23]+0.306*[#  31]+0.057*[#   9]+0.055*[#  24]+0.055*[#  25]
          +0.055*[#  32]+0.055*[#  33]+0.026*[#  12]+0.026*[#  13]+0.018*[#  10]
          +0.018*[#  11]+0.003*[#  19]+0.003*[#  21]+0.003*[#  29]
    |psi|^2 = 0.986
==== e(  21) =    -4.50129 eV ==== 
     psi = 0.212*[#  24]+0.212*[#  25]+0.212*[#  32]+0.212*[#  33]+0.045*[#  12]
          +0.045*[#  13]+0.019*[#  10]+0.019*[#  11]
    |psi|^2 = 0.975
==== e(  22) =    -4.50110 eV ==== 
     psi = 0.197*[#  15]+0.197*[#  16]+0.140*[#  27]+0.140*[#  28]+0.140*[#  35]
          +0.140*[#  36]+0.019*[#  17]+0.019*[#  18]
    |psi|^2 = 0.992
==== e(  23) =    -4.29978 eV ==== 
     psi = 0.409*[#   9]+0.193*[#  10]+0.193*[#  11]+0.055*[#  12]+0.055*[#  13]
          +0.022*[#  23]+0.022*[#  31]+0.012*[#  19]+0.004*[#  24]+0.004*[#  25]
          +0.004*[#  32]+0.004*[#  33]+0.003*[#  21]+0.003*[#  29]
    |psi|^2 = 0.984
==== e(  24) =    -4.26517 eV ==== 
     psi = 0.321*[#  26]+0.321*[#  34]+0.074*[#  17]+0.074*[#  18]+0.039*[#  27]
          +0.039*[#  28]+0.039*[#  35]+0.039*[#  36]+0.021*[#  14]+0.005*[#  15]
          +0.005*[#  16]+0.004*[#  20]+0.002*[#  22]+0.002*[#  30]
    |psi|^2 = 0.984
==== e(  25) =    -4.24601 eV ==== 
     psi = 0.225*[#  27]+0.225*[#  28]+0.225*[#  35]+0.225*[#  36]+0.028*[#  15]
          +0.028*[#  16]+0.007*[#  17]+0.007*[#  18]
    |psi|^2 = 0.971
==== e(  26) =    -4.00659 eV ==== 
     psi = 0.371*[#  12]+0.371*[#  13]+0.058*[#  10]+0.058*[#  11]+0.034*[#  24]
          +0.034*[#  25]+0.034*[#  32]+0.034*[#  33]
    |psi|^2 = 0.994
==== e(  27) =    -3.89435 eV ==== 
     psi = 0.404*[#   9]+0.174*[#  12]+0.174*[#  13]+0.070*[#  10]+0.070*[#  11]
          +0.030*[#  23]+0.030*[#  31]+0.022*[#  19]+0.005*[#  24]+0.005*[#  25]
          +0.005*[#  32]+0.005*[#  33]
    |psi|^2 = 0.995
==== e(  28) =    -3.34648 eV ==== 
     psi = 0.257*[#  14]+0.240*[#  15]+0.240*[#  16]+0.066*[#  17]+0.066*[#  18]
          +0.044*[#  26]+0.044*[#  34]+0.016*[#  20]+0.003*[#  22]+0.003*[#  30]
          
    |psi|^2 = 0.980
==== e(  29) =    -3.15384 eV ==== 
     psi = 0.431*[#  17]+0.431*[#  18]+0.047*[#  15]+0.047*[#  16]+0.009*[#  27]
          +0.009*[#  28]+0.009*[#  35]+0.009*[#  36]
    |psi|^2 = 0.994
==== e(  30) =    -3.13019 eV ==== 
     psi = 0.578*[#  14]+0.154*[#  17]+0.154*[#  18]+0.027*[#  15]+0.027*[#  16]
          +0.020*[#  20]+0.011*[#  26]+0.011*[#  34]+0.003*[#  27]+0.003*[#  28]
          +0.003*[#  35]+0.003*[#  36]
    |psi|^2 = 0.994
==== e(  31) =    -2.56400 eV ==== 
     psi = 0.290*[#  23]+0.290*[#  31]+0.077*[#  12]+0.077*[#  13]+0.065*[#   9]
          +0.056*[#  10]+0.056*[#  11]+0.019*[#  24]+0.019*[#  25]+0.019*[#  32]
          +0.019*[#  33]+0.004*[#  19]+0.004*[#  21]+0.004*[#  29]
    |psi|^2 = 0.996
==== e(  32) =    -2.26400 eV ==== 
     psi = 0.183*[#  24]+0.183*[#  25]+0.183*[#  32]+0.183*[#  33]+0.127*[#  10]
          +0.127*[#  11]+0.005*[#  12]+0.005*[#  13]
    |psi|^2 = 0.998
==== e(  33) =    -1.26006 eV ==== 
     psi = 0.179*[#  15]+0.179*[#  16]+0.144*[#  26]+0.144*[#  34]+0.120*[#  17]
          +0.120*[#  18]+0.026*[#  14]+0.015*[#  27]+0.015*[#  28]+0.015*[#  35]
          +0.015*[#  36]+0.007*[#  22]+0.007*[#  30]+0.006*[#  20]
    |psi|^2 = 0.991
==== e(  34) =    -1.08637 eV ==== 
     psi = 0.224*[#  15]+0.224*[#  16]+0.117*[#  27]+0.117*[#  28]+0.117*[#  35]
          +0.117*[#  36]+0.039*[#  17]+0.039*[#  18]
    |psi|^2 = 0.994
==== e(  35) =     0.92157 eV ==== 
     psi = 0.544*[#  19]+0.044*[#  24]+0.044*[#  25]+0.044*[#  32]+0.044*[#  33]
          +0.018*[#  23]+0.018*[#  31]+0.009*[#  21]+0.009*[#  29]+0.007*[#  12]
          +0.007*[#  13]+0.002*[#   1]
    |psi|^2 = 0.792
==== e(  36) =     1.16873 eV ==== 
     psi = 0.522*[#  20]+0.045*[#  27]+0.045*[#  28]+0.045*[#  35]+0.045*[#  36]
          +0.020*[#  26]+0.020*[#  34]+0.012*[#  17]+0.012*[#  18]+0.010*[#  22]
          +0.010*[#  30]+0.002*[#   2]
    |psi|^2 = 0.791
==== e(  37) =     2.99309 eV ==== 
     psi = 0.014*[#  19]+0.005*[#  23]+0.005*[#  31]
    |psi|^2 = 0.030
==== e(  38) =     3.14099 eV ==== 
     psi = 0.017*[#  20]+0.006*[#  26]+0.006*[#  34]
    |psi|^2 = 0.036
==== e(  39) =     3.53554 eV ==== 
     psi = 0.002*[#   9]+0.002*[#  12]+0.002*[#  13]+0.001*[#  10]+0.001*[#  11]
          +0.001*[#  24]+0.001*[#  25]+0.001*[#  32]+0.001*[#  33]
    |psi|^2 = 0.014
==== e(  40) =     3.71778 eV ==== 
     psi = 0.003*[#  14]+0.003*[#  17]+0.003*[#  18]+0.001*[#  15]+0.001*[#  16]
          +0.001*[#  27]+0.001*[#  28]+0.001*[#  35]+0.001*[#  36]
    |psi|^2 = 0.019

 k =   0.0000000000 -0.5773502692  0.0000000000
==== e(   1) =  -105.99998 eV ==== 
     psi = 0.995*[#   1]+0.001*[#  24]+0.001*[#  25]+0.001*[#  32]+0.001*[#  33]
          
    |psi|^2 = 1.000
==== e(   2) =  -104.62940 eV ==== 
     psi = 0.995*[#   2]+0.001*[#  27]+0.001*[#  28]+0.001*[#  35]+0.001*[#  36]
          
    |psi|^2 = 1.000
==== e(   3) =   -66.47359 eV ==== 
     psi = 0.999*[#   3]
    |psi|^2 = 1.000
==== e(   4) =   -66.42072 eV ==== 
     psi = 0.499*[#   4]+0.499*[#   5]
    |psi|^2 = 1.000
==== e(   5) =   -66.42036 eV ==== 
     psi = 0.500*[#   4]+0.500*[#   5]
    |psi|^2 = 1.000
==== e(   6) =   -64.96420 eV ==== 
     psi = 0.999*[#   6]
    |psi|^2 = 1.000
==== e(   7) =   -64.95381 eV ==== 
     psi = 0.499*[#   7]+0.499*[#   8]
    |psi|^2 = 1.000
==== e(   8) =   -64.95340 eV ==== 
     psi = 0.500*[#   7]+0.500*[#   8]
    |psi|^2 = 1.000
==== e(   9) =   -14.69558 eV ==== 
     psi = 0.492*[#  21]+0.492*[#  29]+0.004*[#  23]+0.004*[#  31]+0.001*[#  24]
          +0.001*[#  25]+0.001*[#  32]+0.001*[#  33]
    |psi|^2 = 0.997
==== e(  10) =   -14.50518 eV ==== 
     psi = 0.468*[#  21]+0.468*[#  29]+0.033*[#  19]+0.009*[#  10]+0.009*[#  11]
          +0.005*[#  12]+0.005*[#  13]
    |psi|^2 = 1.000
==== e(  11) =   -14.44758 eV ==== 
     psi = 0.492*[#  22]+0.492*[#  30]+0.004*[#  26]+0.004*[#  34]+0.001*[#  27]
          +0.001*[#  28]+0.001*[#  35]+0.001*[#  36]
    |psi|^2 = 0.997
==== e(  12) =   -14.23615 eV ==== 
     psi = 0.469*[#  22]+0.469*[#  30]+0.034*[#  20]+0.007*[#  15]+0.007*[#  16]
          +0.004*[#  17]+0.004*[#  18]
    |psi|^2 = 1.000
==== e(  13) =    -7.58999 eV ==== 
     psi = 0.204*[#  19]+0.166*[#  24]+0.166*[#  25]+0.166*[#  32]+0.166*[#  33]
          +0.027*[#  23]+0.027*[#  31]+0.020*[#  10]+0.020*[#  11]+0.009*[#  12]
          +0.009*[#  13]+0.006*[#  21]+0.006*[#  29]+0.002*[#   1]+0.002*[#   9]
          
    |psi|^2 = 0.995
==== e(  14) =    -7.39556 eV ==== 
     psi = 0.214*[#  20]+0.165*[#  27]+0.165*[#  28]+0.165*[#  35]+0.165*[#  36]
          +0.029*[#  26]+0.029*[#  34]+0.013*[#  15]+0.013*[#  16]+0.009*[#  17]
          +0.009*[#  18]+0.008*[#  22]+0.008*[#  30]+0.002*[#   2]+0.001*[#  14]
          
    |psi|^2 = 0.994
==== e(  15) =    -6.60858 eV ==== 
     psi = 0.199*[#  24]+0.199*[#  25]+0.199*[#  32]+0.199*[#  33]+0.089*[#  23]
          +0.089*[#  31]+0.005*[#  21]+0.005*[#  29]
    |psi|^2 = 0.985
==== e(  16) =    -6.41228 eV ==== 
     psi = 0.197*[#  27]+0.197*[#  28]+0.197*[#  35]+0.197*[#  36]+0.092*[#  26]
          +0.092*[#  34]+0.005*[#  22]+0.005*[#  30]
    |psi|^2 = 0.983
==== e(  17) =    -5.77078 eV ==== 
     psi = 0.298*[#  10]+0.298*[#  11]+0.073*[#  12]+0.073*[#  13]+0.063*[#  24]
          +0.063*[#  25]+0.063*[#  32]+0.063*[#  33]
    |psi|^2 = 0.997
==== e(  18) =    -5.58053 eV ==== 
     psi = 0.163*[#  12]+0.163*[#  13]+0.161*[#  23]+0.161*[#  31]+0.137*[#  10]
          +0.137*[#  11]+0.040*[#   9]+0.008*[#  21]+0.008*[#  29]+0.004*[#  24]
          +0.004*[#  25]+0.004*[#  32]+0.004*[#  33]
    |psi|^2 = 0.996
==== e(  19) =    -4.65544 eV ==== 
     psi = 0.396*[#  23]+0.396*[#  31]+0.047*[#  24]+0.047*[#  25]+0.047*[#  32]
          +0.047*[#  33]+0.002*[#  21]+0.002*[#  29]
    |psi|^2 = 0.982
==== e(  20) =    -4.60701 eV ==== 
     psi = 0.259*[#  26]+0.259*[#  34]+0.122*[#  14]+0.119*[#  17]+0.119*[#  18]
          +0.026*[#  15]+0.026*[#  16]+0.013*[#  27]+0.013*[#  28]+0.013*[#  35]
          +0.013*[#  36]+0.002*[#  22]+0.002*[#  30]+0.001*[#  20]
    |psi|^2 = 0.988
==== e(  21) =    -4.49919 eV ==== 
     psi = 0.222*[#  15]+0.222*[#  16]+0.132*[#  27]+0.132*[#  28]+0.132*[#  35]
          +0.132*[#  36]+0.012*[#  17]+0.012*[#  18]
    |psi|^2 = 0.994
==== e(  22) =    -4.48489 eV ==== 
     psi = 0.243*[#  24]+0.243*[#  25]+0.243*[#  32]+0.243*[#  33]
    |psi|^2 = 0.972
==== e(  23) =    -4.43470 eV ==== 
     psi = 0.391*[#  26]+0.391*[#  34]+0.048*[#  27]+0.048*[#  28]+0.048*[#  35]
          +0.048*[#  36]+0.002*[#  22]+0.002*[#  30]
    |psi|^2 = 0.980
==== e(  24) =    -4.32868 eV ==== 
     psi = 0.520*[#   9]+0.190*[#  10]+0.190*[#  11]+0.028*[#  12]+0.028*[#  13]
          +0.006*[#  19]+0.003*[#  24]+0.003*[#  25]+0.003*[#  32]+0.003*[#  33]
          +0.003*[#  21]+0.003*[#  29]+0.001*[#  23]+0.001*[#  31]
    |psi|^2 = 0.984
==== e(  25) =    -4.27277 eV ==== 
     psi = 0.242*[#  27]+0.242*[#  28]+0.242*[#  35]+0.242*[#  36]
    |psi|^2 = 0.968
==== e(  26) =    -4.06899 eV ==== 
     psi = 0.421*[#  12]+0.421*[#  13]+0.070*[#  10]+0.070*[#  11]+0.004*[#  24]
          +0.004*[#  25]+0.004*[#  32]+0.004*[#  33]
    |psi|^2 = 0.997
==== e(  27) =    -3.94352 eV ==== 
     psi = 0.362*[#   9]+0.207*[#  12]+0.207*[#  13]+0.084*[#  10]+0.084*[#  11]
          +0.032*[#  19]+0.004*[#  23]+0.004*[#  31]+0.003*[#  24]+0.003*[#  25]
          +0.003*[#  32]+0.003*[#  33]
    |psi|^2 = 0.996
==== e(  28) =    -3.34871 eV ==== 
     psi = 0.259*[#  14]+0.241*[#  15]+0.241*[#  16]+0.066*[#  17]+0.066*[#  18]
          +0.042*[#  26]+0.042*[#  34]+0.017*[#  20]+0.003*[#  22]+0.003*[#  30]
          
    |psi|^2 = 0.979
==== e(  29) =    -3.17763 eV ==== 
     psi = 0.447*[#  17]+0.447*[#  18]+0.047*[#  15]+0.047*[#  16]+0.002*[#  27]
          +0.002*[#  28]+0.002*[#  35]+0.002*[#  36]
    |psi|^2 = 0.995
==== e(  30) =    -3.16494 eV ==== 
     psi = 0.578*[#  14]+0.166*[#  17]+0.166*[#  18]+0.026*[#  15]+0.026*[#  16]
          +0.026*[#  20]+0.002*[#  27]+0.002*[#  28]+0.002*[#  35]+0.002*[#  36]
          
    |psi|^2 = 0.994
==== e(  31) =    -2.53561 eV ==== 
     psi = 0.285*[#  23]+0.285*[#  31]+0.076*[#  12]+0.076*[#  13]+0.069*[#   9]
          +0.058*[#  10]+0.058*[#  11]+0.020*[#  24]+0.020*[#  25]+0.020*[#  32]
          +0.020*[#  33]+0.005*[#  19]+0.003*[#  21]+0.003*[#  29]
    |psi|^2 = 0.997
==== e(  32) =    -2.26814 eV ==== 
     psi = 0.182*[#  24]+0.182*[#  25]+0.182*[#  32]+0.182*[#  33]+0.131*[#  10]
          +0.131*[#  11]+0.004*[#  12]+0.004*[#  13]
    |psi|^2 = 0.998
==== e(  33) =    -1.22686 eV ==== 
     psi = 0.179*[#  15]+0.179*[#  16]+0.143*[#  26]+0.143*[#  34]+0.118*[#  17]
          +0.118*[#  18]+0.029*[#  14]+0.015*[#  27]+0.015*[#  28]+0.015*[#  35]
          +0.015*[#  36]+0.009*[#  20]+0.006*[#  22]+0.006*[#  30]
    |psi|^2 = 0.992
==== e(  34) =    -1.08719 eV ==== 
     psi = 0.228*[#  15]+0.228*[#  16]+0.116*[#  27]+0.116*[#  28]+0.116*[#  35]
          +0.116*[#  36]+0.037*[#  17]+0.037*[#  18]
    |psi|^2 = 0.995
==== e(  35) =     0.85067 eV ==== 
     psi = 0.570*[#  19]+0.045*[#  24]+0.045*[#  25]+0.045*[#  32]+0.045*[#  33]
          +0.018*[#  23]+0.018*[#  31]+0.009*[#  21]+0.009*[#  29]+0.008*[#  12]
          +0.008*[#  13]+0.002*[#   1]
    |psi|^2 = 0.823
==== e(  36) =     1.10601 eV ==== 
     psi = 0.548*[#  20]+0.046*[#  27]+0.046*[#  28]+0.046*[#  35]+0.046*[#  36]
          +0.021*[#  26]+0.021*[#  34]+0.014*[#  17]+0.014*[#  18]+0.009*[#  22]
          +0.009*[#  30]+0.002*[#   2]
    |psi|^2 = 0.825
==== e(  37) =     2.95888 eV ==== 
     psi = 0.005*[#  23]+0.005*[#  31]
    |psi|^2 = 0.011
==== e(  38) =     3.10320 eV ==== 
     psi = 0.005*[#  26]+0.005*[#  34]
    |psi|^2 = 0.014
==== e(  39) =     3.67906 eV ==== 
     psi = 0.004*[#   9]+0.003*[#  10]+0.003*[#  11]+0.002*[#  23]+0.002*[#  31]
          +0.002*[#  12]+0.002*[#  13]
    |psi|^2 = 0.019
==== e(  40) =     3.83030 eV ==== 
     psi = 0.002*[#  23]+0.002*[#  31]+0.002*[#  24]+0.002*[#  25]+0.002*[#  32]
          +0.002*[#  33]
    |psi|^2 = 0.011

 k =   0.0625000000  0.1082531755  0.0000000000
==== e(   1) =  -106.00000 eV ==== 
     psi = 0.995*[#   1]+0.002*[#  23]+0.002*[#  31]
    |psi|^2 = 1.000
==== e(   2) =  -104.62942 eV ==== 
     psi = 0.995*[#   2]+0.002*[#  26]+0.002*[#  34]
    |psi|^2 = 1.000
==== e(   3) =   -66.47366 eV ==== 
     psi = 0.999*[#   3]
    |psi|^2 = 1.000
==== e(   4) =   -66.42029 eV ==== 
     psi = 0.500*[#   4]+0.500*[#   5]
    |psi|^2 = 1.000
==== e(   5) =   -66.42025 eV ==== 
     psi = 0.500*[#   4]+0.500*[#   5]
    |psi|^2 = 1.000
==== e(   6) =   -64.96429 eV ==== 
     psi = 0.999*[#   6]
    |psi|^2 = 1.000
==== e(   7) =   -64.95332 eV ==== 
     psi = 0.500*[#   7]+0.500*[#   8]
    |psi|^2 = 1.000
==== e(   8) =   -64.95328 eV ==== 
     psi = 0.500*[#   7]+0.500*[#   8]
    |psi|^2 = 1.000
==== e(   9) =   -15.70572 eV ==== 
     psi = 0.372*[#  21]+0.372*[#  29]+0.241*[#  19]+0.005*[#  23]+0.005*[#  31]
          +0.001*[#  24]+0.001*[#  25]+0.001*[#  32]+0.001*[#  33]
    |psi|^2 = 1.000
==== e(  10) =   -15.47949 eV ==== 
     psi = 0.369*[#  22]+0.369*[#  30]+0.246*[#  20]+0.005*[#  26]+0.005*[#  34]
          +0.001*[#  27]+0.001*[#  28]+0.001*[#  35]+0.001*[#  36]
    |psi|^2 = 1.000
==== e(  11) =   -14.80471 eV ==== 
     psi = 0.493*[#  21]+0.493*[#  29]+0.002*[#  23]+0.002*[#  31]
    |psi|^2 = 0.997
==== e(  12) =   -14.54687 eV ==== 
     psi = 0.493*[#  22]+0.493*[#  30]+0.002*[#  26]+0.002*[#  34]+0.001*[#  27]
          +0.001*[#  28]+0.001*[#  35]+0.001*[#  36]
    |psi|^2 = 0.997
==== e(  13) =    -6.77164 eV ==== 
     psi = 0.371*[#  23]+0.371*[#  31]+0.095*[#   9]+0.079*[#  19]+0.036*[#  21]
          +0.036*[#  29]+0.002*[#   1]
    |psi|^2 = 0.994
==== e(  14) =    -6.55481 eV ==== 
     psi = 0.377*[#  26]+0.377*[#  34]+0.083*[#  20]+0.073*[#  14]+0.040*[#  22]
          +0.040*[#  30]+0.002*[#   2]
    |psi|^2 = 0.994
==== e(  15) =    -5.92812 eV ==== 
     psi = 0.183*[#  12]+0.183*[#  13]+0.157*[#  10]+0.157*[#  11]+0.068*[#  24]
          +0.068*[#  25]+0.068*[#  32]+0.068*[#  33]+0.022*[#  23]+0.022*[#  31]
          
    |psi|^2 = 0.994
==== e(  16) =    -5.81075 eV ==== 
     psi = 0.196*[#  10]+0.196*[#  11]+0.180*[#  12]+0.180*[#  13]+0.061*[#  24]
          +0.061*[#  25]+0.061*[#  32]+0.061*[#  33]
    |psi|^2 = 0.995
==== e(  17) =    -4.87425 eV ==== 
     psi = 0.169*[#  17]+0.169*[#  18]+0.120*[#  27]+0.120*[#  28]+0.120*[#  35]
          +0.120*[#  36]+0.050*[#  26]+0.050*[#  34]+0.032*[#  15]+0.032*[#  16]
          
    |psi|^2 = 0.987
==== e(  18) =    -4.56656 eV ==== 
     psi = 0.196*[#  17]+0.196*[#  18]+0.124*[#  27]+0.124*[#  28]+0.124*[#  35]
          +0.124*[#  36]+0.050*[#  15]+0.050*[#  16]
    |psi|^2 = 0.987
==== e(  19) =    -4.41097 eV ==== 
     psi = 0.296*[#  10]+0.296*[#  11]+0.145*[#  12]+0.145*[#  13]+0.023*[#  24]
          +0.023*[#  25]+0.023*[#  32]+0.023*[#  33]+0.006*[#  23]+0.006*[#  31]
          
    |psi|^2 = 0.988
==== e(  20) =    -4.39262 eV ==== 
     psi = 0.209*[#  10]+0.209*[#  11]+0.158*[#  12]+0.158*[#  13]+0.065*[#   9]
          +0.044*[#  24]+0.044*[#  25]+0.044*[#  32]+0.044*[#  33]+0.008*[#  19]
          +0.003*[#  21]+0.003*[#  29]
    |psi|^2 = 0.988
==== e(  21) =    -4.03684 eV ==== 
     psi = 0.667*[#   9]+0.042*[#  10]+0.042*[#  11]+0.038*[#  12]+0.038*[#  13]
          +0.032*[#  19]+0.019*[#  24]+0.019*[#  25]+0.019*[#  32]+0.019*[#  33]
          +0.017*[#  23]+0.017*[#  31]+0.009*[#  21]+0.009*[#  29]
    |psi|^2 = 0.991
==== e(  22) =    -3.71305 eV ==== 
     psi = 0.186*[#  14]+0.127*[#  15]+0.127*[#  16]+0.111*[#  27]+0.111*[#  28]
          +0.111*[#  35]+0.111*[#  36]+0.028*[#  20]+0.025*[#  17]+0.025*[#  18]
          +0.010*[#  22]+0.010*[#  30]
    |psi|^2 = 0.982
==== e(  23) =    -3.65292 eV ==== 
     psi = 0.465*[#  23]+0.465*[#  31]+0.016*[#  12]+0.016*[#  13]+0.006*[#  24]
          +0.006*[#  25]+0.006*[#  32]+0.006*[#  33]+0.002*[#  21]+0.002*[#  29]
          
    |psi|^2 = 0.992
==== e(  24) =    -3.50857 eV ==== 
     psi = 0.287*[#  15]+0.287*[#  16]+0.099*[#  17]+0.099*[#  18]+0.043*[#  27]
          +0.043*[#  28]+0.043*[#  35]+0.043*[#  36]+0.018*[#  26]+0.018*[#  34]
          
    |psi|^2 = 0.983
==== e(  25) =    -3.37423 eV ==== 
     psi = 0.422*[#  26]+0.422*[#  34]+0.026*[#  27]+0.026*[#  28]+0.026*[#  35]
          +0.026*[#  36]+0.018*[#  15]+0.018*[#  16]+0.002*[#  17]+0.002*[#  18]
          +0.001*[#  22]+0.001*[#  30]
    |psi|^2 = 0.988
==== e(  26) =    -3.28807 eV ==== 
     psi = 0.376*[#  14]+0.172*[#  15]+0.172*[#  16]+0.097*[#  17]+0.097*[#  18]
          +0.018*[#  20]+0.008*[#  27]+0.008*[#  28]+0.008*[#  35]+0.008*[#  36]
          +0.007*[#  26]+0.007*[#  34]+0.004*[#  22]+0.004*[#  30]
    |psi|^2 = 0.986
==== e(  27) =    -3.24762 eV ==== 
     psi = 0.166*[#  24]+0.166*[#  25]+0.166*[#  32]+0.166*[#  33]+0.159*[#   9]
          +0.032*[#  12]+0.032*[#  13]+0.030*[#  23]+0.030*[#  31]+0.014*[#  10]
          +0.014*[#  11]+0.007*[#  19]+0.004*[#  21]+0.004*[#  29]
    |psi|^2 = 0.987
==== e(  28) =    -3.02491 eV ==== 
     psi = 0.209*[#  24]+0.209*[#  25]+0.209*[#  32]+0.209*[#  33]+0.067*[#  12]
          +0.067*[#  13]+0.006*[#  10]+0.006*[#  11]
    |psi|^2 = 0.982
==== e(  29) =    -2.77543 eV ==== 
     psi = 0.346*[#  14]+0.107*[#  27]+0.107*[#  28]+0.107*[#  35]+0.107*[#  36]
          +0.045*[#  17]+0.045*[#  18]+0.031*[#  26]+0.031*[#  34]+0.029*[#  15]
          +0.029*[#  16]+0.001*[#  20]+0.001*[#  22]+0.001*[#  30]
    |psi|^2 = 0.988
==== e(  30) =    -2.66354 eV ==== 
     psi = 0.193*[#  27]+0.193*[#  28]+0.193*[#  35]+0.193*[#  36]+0.078*[#  17]
          +0.078*[#  18]+0.027*[#  15]+0.027*[#  16]
    |psi|^2 = 0.981
==== e(  31) =    -2.38712 eV ==== 
     psi = 0.184*[#  24]+0.184*[#  25]+0.184*[#  32]+0.184*[#  33]+0.085*[#  12]
          +0.085*[#  13]+0.037*[#  10]+0.037*[#  11]+0.003*[#  21]+0.003*[#  29]
          +0.001*[#  23]+0.001*[#  31]
    |psi|^2 = 0.989
==== e(  32) =    -2.10399 eV ==== 
     psi = 0.186*[#  24]+0.186*[#  25]+0.186*[#  32]+0.186*[#  33]+0.088*[#  12]
          +0.088*[#  13]+0.036*[#  10]+0.036*[#  11]
    |psi|^2 = 0.995
==== e(  33) =    -1.24057 eV ==== 
     psi = 0.144*[#  17]+0.144*[#  18]+0.126*[#  15]+0.126*[#  16]+0.106*[#  27]
          +0.106*[#  28]+0.106*[#  35]+0.106*[#  36]+0.004*[#  26]+0.004*[#  34]
          +0.004*[#  22]+0.004*[#  30]
[...]
     psi = 0.261*[#  15]+0.261*[#  16]+0.070*[#  17]+0.070*[#  18]+0.052*[#  26]
          +0.052*[#  34]+0.050*[#  27]+0.050*[#  28]+0.050*[#  35]+0.050*[#  36]
          +0.005*[#  14]+0.003*[#  22]+0.003*[#  30]+0.003*[#  20]
    |psi|^2 = 0.980
==== e(  34) =    -1.31339 eV ==== 
     psi = 0.214*[#  15]+0.214*[#  16]+0.116*[#  26]+0.116*[#  34]+0.095*[#  17]
          +0.095*[#  18]+0.031*[#  27]+0.031*[#  28]+0.031*[#  35]+0.031*[#  36]
          +0.005*[#  22]+0.005*[#  30]+0.001*[#  14]
    |psi|^2 = 0.986
==== e(  35) =     1.90082 eV ==== 
     psi = 0.534*[#  19]+0.063*[#  24]+0.063*[#  25]+0.063*[#  32]+0.063*[#  33]
          +0.006*[#  23]+0.006*[#  31]+0.003*[#   9]+0.003*[#   1]+0.002*[#  21]
          +0.002*[#  29]
    |psi|^2 = 0.809
==== e(  36) =     2.14687 eV ==== 
     psi = 0.516*[#  20]+0.064*[#  27]+0.064*[#  28]+0.064*[#  35]+0.064*[#  36]
          +0.007*[#  26]+0.007*[#  34]+0.005*[#  14]+0.003*[#   2]+0.002*[#  22]
          +0.002*[#  30]+0.001*[#  17]+0.001*[#  18]
    |psi|^2 = 0.803
==== e(  37) =     3.65458 eV ==== 
     psi = 0.004*[#  23]+0.004*[#  31]+0.002*[#  19]+0.002*[#  24]+0.002*[#  25]
          +0.002*[#  32]+0.002*[#  33]
    |psi|^2 = 0.019
==== e(  38) =     3.80804 eV ==== 
     psi = 0.004*[#  26]+0.004*[#  34]+0.002*[#  20]+0.002*[#  27]+0.002*[#  28]
          +0.002*[#  35]+0.002*[#  36]+0.002*[#  15]+0.002*[#  16]
    |psi|^2 = 0.023
==== e(  39) =     4.55286 eV ==== 
     psi = 0.007*[#  23]+0.007*[#  31]+0.004*[#  19]
    |psi|^2 = 0.022
==== e(  40) =     4.71139 eV ==== 
     psi = 0.008*[#  26]+0.008*[#  34]+0.005*[#  20]+0.001*[#  15]+0.001*[#  16]
          
    |psi|^2 = 0.028

 k =   0.2500000000  0.5773502692  0.0000000000
==== e(   1) =  -105.99998 eV ==== 
     psi = 0.995*[#   1]+0.001*[#  24]+0.001*[#  25]+0.001*[#  32]+0.001*[#  33]
          
    |psi|^2 = 1.000
==== e(   2) =  -104.62940 eV ==== 
     psi = 0.995*[#   2]+0.001*[#  27]+0.001*[#  28]+0.001*[#  35]+0.001*[#  36]
          
    |psi|^2 = 1.000
==== e(   3) =   -66.47358 eV ==== 
     psi = 0.999*[#   3]
    |psi|^2 = 1.000
==== e(   4) =   -66.42063 eV ==== 
     psi = 0.499*[#   4]+0.499*[#   5]
    |psi|^2 = 1.000
==== e(   5) =   -66.42050 eV ==== 
     psi = 0.499*[#   4]+0.499*[#   5]
    |psi|^2 = 1.000
==== e(   6) =   -64.96420 eV ==== 
     psi = 0.999*[#   6]
    |psi|^2 = 1.000
==== e(   7) =   -64.95371 eV ==== 
     psi = 0.499*[#   7]+0.499*[#   8]
    |psi|^2 = 1.000
==== e(   8) =   -64.95357 eV ==== 
     psi = 0.499*[#   7]+0.499*[#   8]
    |psi|^2 = 1.000
==== e(   9) =   -14.56082 eV ==== 
     psi = 0.488*[#  21]+0.488*[#  29]+0.003*[#  10]+0.003*[#  11]+0.002*[#  23]
          +0.002*[#  31]+0.002*[#  12]+0.002*[#  13]+0.002*[#  24]+0.002*[#  25]
          +0.002*[#  32]+0.002*[#  33]
    |psi|^2 = 0.998
==== e(  10) =   -14.46553 eV ==== 
     psi = 0.484*[#  21]+0.484*[#  29]+0.006*[#  10]+0.006*[#  11]+0.006*[#  19]
          +0.004*[#  12]+0.004*[#  13]
    |psi|^2 = 0.999
==== e(  11) =   -14.30433 eV ==== 
     psi = 0.488*[#  22]+0.488*[#  30]+0.003*[#  15]+0.003*[#  16]+0.003*[#  26]
          +0.003*[#  34]+0.002*[#  17]+0.002*[#  18]+0.002*[#  27]+0.002*[#  28]
          +0.002*[#  35]+0.002*[#  36]
    |psi|^2 = 0.998
==== e(  12) =   -14.19997 eV ==== 
     psi = 0.485*[#  22]+0.485*[#  30]+0.006*[#  20]+0.005*[#  15]+0.005*[#  16]
          +0.003*[#  17]+0.003*[#  18]
    |psi|^2 = 0.999
==== e(  13) =    -7.18292 eV ==== 
     psi = 0.245*[#  19]+0.170*[#  24]+0.170*[#  25]+0.170*[#  32]+0.170*[#  33]
          +0.013*[#  10]+0.013*[#  11]+0.013*[#  23]+0.013*[#  31]+0.007*[#   9]
          +0.002*[#  21]+0.002*[#  29]+0.002*[#  12]+0.002*[#  13]+0.002*[#   1]
          
    |psi|^2 = 0.996
==== e(  14) =    -7.00430 eV ==== 
     psi = 0.263*[#  20]+0.168*[#  27]+0.168*[#  28]+0.168*[#  35]+0.168*[#  36]
          +0.014*[#  26]+0.014*[#  34]+0.006*[#  15]+0.006*[#  16]+0.005*[#  14]
          +0.003*[#  22]+0.003*[#  30]+0.003*[#  17]+0.003*[#  18]+0.002*[#   2]
          
    |psi|^2 = 0.995
==== e(  15) =    -6.47362 eV ==== 
     psi = 0.171*[#  24]+0.171*[#  25]+0.171*[#  32]+0.171*[#  33]+0.091*[#  10]
          +0.091*[#  11]+0.058*[#  23]+0.058*[#  31]+0.002*[#  21]+0.002*[#  29]
          
    |psi|^2 = 0.986
==== e(  16) =    -6.17560 eV ==== 
     psi = 0.176*[#  24]+0.176*[#  25]+0.176*[#  32]+0.176*[#  33]+0.066*[#  10]
          +0.066*[#  11]+0.041*[#  23]+0.041*[#  31]+0.040*[#  19]+0.008*[#  12]
          +0.008*[#  13]+0.008*[#   9]
    |psi|^2 = 0.982
==== e(  17) =    -6.16264 eV ==== 
     psi = 0.178*[#  27]+0.178*[#  28]+0.178*[#  35]+0.178*[#  36]+0.096*[#  26]
          +0.096*[#  34]+0.030*[#  15]+0.030*[#  16]+0.005*[#  17]+0.005*[#  18]
          +0.004*[#  22]+0.004*[#  30]
    |psi|^2 = 0.982
==== e(  18) =    -5.90799 eV ==== 
     psi = 0.176*[#  27]+0.176*[#  28]+0.176*[#  35]+0.176*[#  36]+0.071*[#  26]
          +0.071*[#  34]+0.033*[#  20]+0.027*[#  15]+0.027*[#  16]+0.018*[#  17]
          +0.018*[#  18]+0.006*[#  14]
    |psi|^2 = 0.978
==== e(  19) =    -5.63079 eV ==== 
     psi = 0.142*[#  10]+0.142*[#  11]+0.092*[#  24]+0.092*[#  25]+0.092*[#  32]
          +0.092*[#  33]+0.084*[#  23]+0.084*[#  31]+0.083*[#  12]+0.083*[#  13]
          +0.004*[#  21]+0.004*[#  29]
    |psi|^2 = 0.991
==== e(  20) =    -5.49155 eV ==== 
     psi = 0.165*[#  23]+0.165*[#  31]+0.163*[#  12]+0.163*[#  13]+0.155*[#  10]
          +0.155*[#  11]+0.009*[#  21]+0.009*[#  29]+0.007*[#   9]+0.002*[#  24]
          +0.002*[#  25]+0.002*[#  32]+0.002*[#  33]
    |psi|^2 = 0.997
==== e(  21) =    -5.09995 eV ==== 
     psi = 0.149*[#  23]+0.149*[#  31]+0.131*[#  24]+0.131*[#  25]+0.131*[#  32]
          +0.131*[#  33]+0.069*[#  12]+0.069*[#  13]+0.007*[#  10]+0.007*[#  11]
          +0.003*[#  21]+0.003*[#  29]
    |psi|^2 = 0.981
==== e(  22) =    -5.04486 eV ==== 
     psi = 0.224*[#  27]+0.224*[#  28]+0.224*[#  35]+0.224*[#  36]+0.033*[#  15]
          +0.033*[#  16]+0.006*[#  26]+0.006*[#  34]
    |psi|^2 = 0.975
==== e(  23) =    -4.44379 eV ==== 
     psi = 0.305*[#  26]+0.305*[#  34]+0.070*[#  15]+0.070*[#  16]+0.056*[#  17]
          +0.056*[#  18]+0.031*[#  27]+0.031*[#  28]+0.031*[#  35]+0.031*[#  36]
          +0.003*[#  22]+0.003*[#  30]
    |psi|^2 = 0.993
==== e(  24) =    -4.36700 eV ==== 
     psi = 0.259*[#  26]+0.259*[#  34]+0.083*[#  15]+0.083*[#  16]+0.081*[#  17]
          +0.081*[#  18]+0.030*[#  27]+0.030*[#  28]+0.030*[#  35]+0.030*[#  36]
          +0.021*[#  14]+0.004*[#  22]+0.004*[#  30]+0.002*[#  20]
    |psi|^2 = 0.997
==== e(  25) =    -4.09437 eV ==== 
     psi = 0.956*[#   9]+0.010*[#  19]+0.004*[#  10]+0.004*[#  11]+0.003*[#  12]
          +0.003*[#  13]+0.003*[#  24]+0.003*[#  25]+0.003*[#  32]+0.003*[#  33]
          
    |psi|^2 = 0.993
==== e(  26) =    -3.85041 eV ==== 
     psi = 0.327*[#  12]+0.327*[#  13]+0.103*[#  10]+0.103*[#  11]+0.058*[#  23]
          +0.058*[#  31]+0.005*[#  24]+0.005*[#  25]+0.005*[#  32]+0.005*[#  33]
          
    |psi|^2 = 0.994
==== e(  27) =    -3.77302 eV ==== 
     psi = 0.266*[#  12]+0.266*[#  13]+0.160*[#  10]+0.160*[#  11]+0.024*[#  24]
          +0.024*[#  25]+0.024*[#  32]+0.024*[#  33]+0.021*[#  23]+0.021*[#  31]
          +0.001*[#  19]
    |psi|^2 = 0.994
==== e(  28) =    -3.30064 eV ==== 
     psi = 0.949*[#  14]+0.009*[#  20]+0.005*[#  15]+0.005*[#  16]+0.005*[#  26]
          +0.005*[#  34]+0.003*[#  17]+0.003*[#  18]
    |psi|^2 = 0.989
==== e(  29) =    -3.08196 eV ==== 
     psi = 0.362*[#  17]+0.362*[#  18]+0.101*[#  15]+0.101*[#  16]+0.021*[#  26]
          +0.021*[#  34]+0.006*[#  27]+0.006*[#  28]+0.006*[#  35]+0.006*[#  36]
          
    |psi|^2 = 0.993
==== e(  30) =    -3.02724 eV ==== 
     psi = 0.290*[#  17]+0.290*[#  18]+0.151*[#  15]+0.151*[#  16]+0.024*[#  26]
          +0.024*[#  34]+0.015*[#  27]+0.015*[#  28]+0.015*[#  35]+0.015*[#  36]
          +0.002*[#  20]
    |psi|^2 = 0.991
==== e(  31) =    -2.97490 eV ==== 
     psi = 0.152*[#  10]+0.152*[#  11]+0.139*[#  23]+0.139*[#  31]+0.092*[#  24]
          +0.092*[#  25]+0.092*[#  32]+0.092*[#  33]+0.016*[#  12]+0.016*[#  13]
          +0.002*[#  21]+0.002*[#  29]
    |psi|^2 = 0.989
==== e(  32) =    -2.72427 eV ==== 
     psi = 0.247*[#  23]+0.247*[#  31]+0.093*[#  10]+0.093*[#  11]+0.049*[#  12]
          +0.049*[#  13]+0.048*[#  24]+0.048*[#  25]+0.048*[#  32]+0.048*[#  33]
          +0.013*[#   9]+0.002*[#  21]+0.002*[#  29]+0.002*[#  19]
    |psi|^2 = 0.991
==== e(  33) =    -1.57459 eV ==== 
     psi = 0.258*[#  15]+0.258*[#  16]+0.071*[#  17]+0.071*[#  18]+0.058*[#  26]
          +0.058*[#  34]+0.050*[#  27]+0.050*[#  28]+0.050*[#  35]+0.050*[#  36]
          +0.004*[#  22]+0.004*[#  30]
    |psi|^2 = 0.980
==== e(  34) =    -1.37415 eV ==== 
     psi = 0.216*[#  15]+0.216*[#  16]+0.113*[#  26]+0.113*[#  34]+0.095*[#  17]
          +0.095*[#  18]+0.030*[#  27]+0.030*[#  28]+0.030*[#  35]+0.030*[#  36]
          +0.005*[#  22]+0.005*[#  30]+0.004*[#  14]+0.003*[#  20]
    |psi|^2 = 0.984
==== e(  35) =     1.84480 eV ==== 
     psi = 0.538*[#  19]+0.063*[#  24]+0.063*[#  25]+0.063*[#  32]+0.063*[#  33]
          +0.004*[#  23]+0.004*[#  31]+0.004*[#   9]+0.003*[#   1]+0.001*[#  21]
          +0.001*[#  29]
    |psi|^2 = 0.811
==== e(  36) =     2.08986 eV ==== 
     psi = 0.521*[#  20]+0.065*[#  27]+0.065*[#  28]+0.065*[#  35]+0.065*[#  36]
          +0.006*[#  14]+0.005*[#  26]+0.005*[#  34]+0.003*[#   2]+0.001*[#  22]
          +0.001*[#  30]+0.001*[#  17]+0.001*[#  18]
    |psi|^2 = 0.805
==== e(  37) =     4.00027 eV ==== 
     psi = 0.005*[#  23]+0.005*[#  31]+0.002*[#  24]+0.002*[#  25]+0.002*[#  32]
          +0.002*[#  33]+0.001*[#  10]+0.001*[#  11]+0.001*[#  19]
    |psi|^2 = 0.020
==== e(  38) =     4.16671 eV ==== 
     psi = 0.006*[#  26]+0.006*[#  34]+0.003*[#  15]+0.003*[#  16]+0.002*[#  27]
          +0.002*[#  28]+0.002*[#  35]+0.002*[#  36]
    |psi|^2 = 0.025
==== e(  39) =     4.17061 eV ==== 
     psi = 0.006*[#  23]+0.006*[#  31]
    |psi|^2 = 0.017
==== e(  40) =     4.32671 eV ==== 
     psi = 0.007*[#  26]+0.007*[#  34]+0.002*[#  15]+0.002*[#  16]
    |psi|^2 = 0.020

 k =   0.3125000000  0.5412658774  0.0000000000
==== e(   1) =  -105.99998 eV ==== 
     psi = 0.995*[#   1]+0.001*[#  24]+0.001*[#  25]+0.001*[#  32]+0.001*[#  33]
          
    |psi|^2 = 1.000
==== e(   2) =  -104.62940 eV ==== 
     psi = 0.995*[#   2]+0.001*[#  27]+0.001*[#  28]+0.001*[#  35]+0.001*[#  36]
          
    |psi|^2 = 1.000
==== e(   3) =   -66.47358 eV ==== 
     psi = 0.999*[#   3]
    |psi|^2 = 1.000
==== e(   4) =   -66.42060 eV ==== 
     psi = 0.499*[#   4]+0.499*[#   5]
    |psi|^2 = 1.000
==== e(   5) =   -66.42054 eV ==== 
     psi = 0.499*[#   4]+0.499*[#   5]
    |psi|^2 = 1.000
==== e(   6) =   -64.96419 eV ==== 
     psi = 0.999*[#   6]
    |psi|^2 = 1.000
==== e(   7) =   -64.95368 eV ==== 
     psi = 0.499*[#   7]+0.499*[#   8]
    |psi|^2 = 1.000
==== e(   8) =   -64.95361 eV ==== 
     psi = 0.499*[#   7]+0.499*[#   8]
    |psi|^2 = 1.000
==== e(   9) =   -14.53225 eV ==== 
     psi = 0.486*[#  21]+0.486*[#  29]+0.004*[#  10]+0.004*[#  11]+0.003*[#  12]
          +0.003*[#  13]+0.002*[#  19]+0.002*[#  23]+0.002*[#  31]+0.002*[#  24]
          +0.002*[#  25]+0.002*[#  32]+0.002*[#  33]
    |psi|^2 = 0.998
==== e(  10) =   -14.46866 eV ==== 
     psi = 0.488*[#  21]+0.488*[#  29]+0.006*[#  10]+0.006*[#  11]+0.004*[#  12]
          +0.004*[#  13]
    |psi|^2 = 0.999
==== e(  11) =   -14.27339 eV ==== 
     psi = 0.487*[#  22]+0.487*[#  30]+0.003*[#  15]+0.003*[#  16]+0.002*[#  17]
          +0.002*[#  18]+0.002*[#  20]+0.002*[#  26]+0.002*[#  34]+0.002*[#  27]
          +0.002*[#  28]+0.002*[#  35]+0.002*[#  36]
    |psi|^2 = 0.998
==== e(  12) =   -14.20471 eV ==== 
     psi = 0.489*[#  22]+0.489*[#  30]+0.005*[#  15]+0.005*[#  16]+0.003*[#  17]
          +0.003*[#  18]+0.001*[#  26]+0.001*[#  34]
    |psi|^2 = 0.998
==== e(  13) =    -7.07714 eV ==== 
     psi = 0.277*[#  19]+0.171*[#  24]+0.171*[#  25]+0.171*[#  32]+0.171*[#  33]
          +0.010*[#   9]+0.006*[#  10]+0.006*[#  11]+0.005*[#  23]+0.005*[#  31]
          +0.002*[#   1]+0.001*[#  21]+0.001*[#  29]
    |psi|^2 = 0.996
==== e(  14) =    -6.91218 eV ==== 
     psi = 0.293*[#  20]+0.169*[#  27]+0.169*[#  28]+0.169*[#  35]+0.169*[#  36]
          +0.007*[#  14]+0.004*[#  26]+0.004*[#  34]+0.002*[#  15]+0.002*[#  16]
          +0.002*[#   2]+0.001*[#  22]+0.001*[#  30]
    |psi|^2 = 0.996
==== e(  15) =    -6.44781 eV ==== 
     psi = 0.175*[#  24]+0.175*[#  25]+0.175*[#  32]+0.175*[#  33]+0.080*[#  10]
          +0.080*[#  11]+0.055*[#  23]+0.055*[#  31]+0.006*[#  12]+0.006*[#  13]
          
    |psi|^2 = 0.984
==== e(  16) =    -6.39262 eV ==== 
     psi = 0.166*[#  24]+0.166*[#  25]+0.166*[#  32]+0.166*[#  33]+0.107*[#  10]
          +0.107*[#  11]+0.046*[#  23]+0.046*[#  31]+0.014*[#  19]+0.002*[#   9]
          
    |psi|^2 = 0.986
==== e(  17) =    -6.15731 eV ==== 
     psi = 0.177*[#  27]+0.177*[#  28]+0.177*[#  35]+0.177*[#  36]+0.085*[#  26]
          +0.085*[#  34]+0.034*[#  15]+0.034*[#  16]+0.015*[#  17]+0.015*[#  18]
          +0.002*[#  22]+0.002*[#  30]
    |psi|^2 = 0.980
==== e(  18) =    -6.05330 eV ==== 
     psi = 0.170*[#  27]+0.170*[#  28]+0.170*[#  35]+0.170*[#  36]+0.095*[#  26]
          +0.095*[#  34]+0.041*[#  15]+0.041*[#  16]+0.009*[#  20]+0.007*[#  17]
          +0.007*[#  18]+0.003*[#  22]+0.003*[#  30]+0.002*[#  14]
    |psi|^2 = 0.981
==== e(  19) =    -5.54993 eV ==== 
     psi = 0.135*[#  10]+0.135*[#  11]+0.106*[#  12]+0.106*[#  13]+0.101*[#  23]
          +0.101*[#  31]+0.075*[#  24]+0.075*[#  25]+0.075*[#  32]+0.075*[#  33]
          +0.006*[#  21]+0.006*[#  29]
    |psi|^2 = 0.992
==== e(  20) =    -5.45102 eV ==== 
     psi = 0.213*[#  23]+0.213*[#  31]+0.155*[#  12]+0.155*[#  13]+0.118*[#  10]
          +0.118*[#  11]+0.008*[#  21]+0.008*[#  29]+0.003*[#   9]
    |psi|^2 = 0.995
==== e(  21) =    -5.27256 eV ==== 
     psi = 0.165*[#  24]+0.165*[#  25]+0.165*[#  32]+0.165*[#  33]+0.075*[#  23]
          +0.075*[#  31]+0.061*[#  12]+0.061*[#  13]+0.021*[#  10]+0.021*[#  11]
          +0.003*[#  21]+0.003*[#  29]
    |psi|^2 = 0.982
==== e(  22) =    -5.14485 eV ==== 
     psi = 0.239*[#  27]+0.239*[#  28]+0.239*[#  35]+0.239*[#  36]+0.008*[#  15]
          +0.008*[#  16]+0.001*[#   6]
    |psi|^2 = 0.974
==== e(  23) =    -4.44636 eV ==== 
     psi = 0.288*[#  26]+0.288*[#  34]+0.079*[#  15]+0.079*[#  16]+0.065*[#  17]
          +0.065*[#  18]+0.030*[#  27]+0.030*[#  28]+0.030*[#  35]+0.030*[#  36]
          +0.006*[#  14]+0.003*[#  22]+0.003*[#  30]
    |psi|^2 = 0.995
==== e(  24) =    -4.35020 eV ==== 
     psi = 0.276*[#  26]+0.276*[#  34]+0.082*[#  15]+0.082*[#  16]+0.080*[#  17]
          +0.080*[#  18]+0.028*[#  27]+0.028*[#  28]+0.028*[#  35]+0.028*[#  36]
          +0.004*[#  22]+0.004*[#  30]
    |psi|^2 = 0.996
==== e(  25) =    -4.09160 eV ==== 
     psi = 0.969*[#   9]+0.010*[#  19]+0.003*[#  12]+0.003*[#  13]+0.002*[#  24]
          +0.002*[#  25]+0.002*[#  32]+0.002*[#  33]
    |psi|^2 = 0.993
==== e(  26) =    -3.82655 eV ==== 
     psi = 0.308*[#  12]+0.308*[#  13]+0.129*[#  10]+0.129*[#  11]+0.041*[#  23]
          +0.041*[#  31]+0.009*[#  24]+0.009*[#  25]+0.009*[#  32]+0.009*[#  33]
          +0.002*[#   9]
    |psi|^2 = 0.995
==== e(  27) =    -3.76904 eV ==== 
     psi = 0.279*[#  12]+0.279*[#  13]+0.150*[#  10]+0.150*[#  11]+0.030*[#  23]
          +0.030*[#  31]+0.019*[#  24]+0.019*[#  25]+0.019*[#  32]+0.019*[#  33]
          
    |psi|^2 = 0.995
==== e(  28) =    -3.31509 eV ==== 
     psi = 0.969*[#  14]+0.010*[#  20]+0.002*[#  26]+0.002*[#  34]+0.001*[#  15]
          +0.001*[#  16]+0.001*[#  17]+0.001*[#  18]
    |psi|^2 = 0.988
==== e(  29) =    -3.06796 eV ==== 
     psi = 0.339*[#  17]+0.339*[#  18]+0.119*[#  15]+0.119*[#  16]+0.022*[#  26]
          +0.022*[#  34]+0.008*[#  27]+0.008*[#  28]+0.008*[#  35]+0.008*[#  36]
          
    |psi|^2 = 0.993
==== e(  30) =    -3.02154 eV ==== 
     psi = 0.306*[#  17]+0.306*[#  18]+0.139*[#  15]+0.139*[#  16]+0.026*[#  26]
          +0.026*[#  34]+0.012*[#  27]+0.012*[#  28]+0.012*[#  35]+0.012*[#  36]
          
    |psi|^2 = 0.992
==== e(  31) =    -2.96571 eV ==== 
     psi = 0.183*[#  23]+0.183*[#  31]+0.133*[#  10]+0.133*[#  11]+0.073*[#  24]
          +0.073*[#  25]+0.073*[#  32]+0.073*[#  33]+0.028*[#  12]+0.028*[#  13]
          +0.004*[#   9]+0.002*[#  21]+0.002*[#  29]
    |psi|^2 = 0.989
==== e(  32) =    -2.79682 eV ==== 
     psi = 0.230*[#  23]+0.230*[#  31]+0.106*[#  10]+0.106*[#  11]+0.057*[#  24]
          +0.057*[#  25]+0.057*[#  32]+0.057*[#  33]+0.042*[#  12]+0.042*[#  13]
          +0.002*[#  21]+0.002*[#  29]
    |psi|^2 = 0.989
==== e(  33) =    -1.56315 eV ==== 
     psi = 0.248*[#  15]+0.248*[#  16]+0.080*[#  17]+0.080*[#  18]+0.075*[#  26]
          +0.075*[#  34]+0.041*[#  27]+0.041*[#  28]+0.041*[#  35]+0.041*[#  36]
          +0.004*[#  22]+0.004*[#  30]+0.001*[#  14]
    |psi|^2 = 0.980
==== e(  34) =    -1.42804 eV ==== 
     psi = 0.227*[#  15]+0.227*[#  16]+0.101*[#  26]+0.101*[#  34]+0.090*[#  17]
          +0.090*[#  18]+0.034*[#  27]+0.034*[#  28]+0.034*[#  35]+0.034*[#  36]
          +0.005*[#  22]+0.005*[#  30]
    |psi|^2 = 0.982
==== e(  35) =     1.88884 eV ==== 
     psi = 0.534*[#  19]+0.065*[#  24]+0.065*[#  25]+0.065*[#  32]+0.065*[#  33]
          +0.005*[#   9]+0.003*[#   1]+0.001*[#  23]+0.001*[#  31]
    |psi|^2 = 0.802
==== e(  36) =     2.12986 eV ==== 
     psi = 0.517*[#  20]+0.066*[#  27]+0.066*[#  28]+0.066*[#  35]+0.066*[#  36]
          +0.008*[#  14]+0.003*[#   2]+0.001*[#  26]+0.001*[#  34]
    |psi|^2 = 0.796
==== e(  37) =     3.95566 eV ==== 
     psi = 0.006*[#  23]+0.006*[#  31]+0.001*[#  10]+0.001*[#  11]
    |psi|^2 = 0.019
==== e(  38) =     4.12398 eV ==== 
     psi = 0.007*[#  26]+0.007*[#  34]+0.003*[#  15]+0.003*[#  16]
    |psi|^2 = 0.025
==== e(  39) =     4.31711 eV ==== 
     psi = 0.007*[#  23]+0.007*[#  31]+0.001*[#  10]+0.001*[#  11]
    |psi|^2 = 0.020
==== e(  40) =     4.48951 eV ==== 
     psi = 0.008*[#  26]+0.008*[#  34]+0.003*[#  15]+0.003*[#  16]
    |psi|^2 = 0.026

Lowdin Charges: 

     Atom #   1: total charge =  17.3552, s =  2.6489, p =  5.9999, d =  8.7064, 
                 spin up      =   9.2841, s =  1.3200, 
                 spin up      =   9.2841, p =  2.9999, 
                 spin up      =   9.2841, d =  4.9641, 
                 spin down    =   8.0711, s =  1.3290, 
                 spin down    =   8.0711, p =  2.9999, 
                 spin down    =   8.0711, d =  3.7422, 
                 polarization =   1.2129, s = -0.0090, p =  0.0000, d =  1.2219, 
     Atom #   2: total charge =   7.2033, s =  1.9405, p =  5.2628, d =  0.0000, 
                 spin up      =   3.8021, s =  0.9743, 
                 spin up      =   3.8021, p =  2.8278, 
                 spin up      =   3.8021, d =  0.0000, 
                 spin down    =   3.4011, s =  0.9661, 
                 spin down    =   3.4011, p =  2.4350, 
                 spin down    =   3.4011, d =  0.0000, 
                 polarization =   0.4010, s =  0.0082, p =  0.3928, d =  0.0000, 
     Atom #   3: total charge =   7.2033, s =  1.9405, p =  5.2628, d =  0.0000, 
                 spin up      =   3.8021, s =  0.9743, 
                 spin up      =   3.8021, p =  2.8278, 
                 spin up      =   3.8021, d =  0.0000, 
                 spin down    =   3.4011, s =  0.9661, 
                 spin down    =   3.4011, p =  2.4350, 
                 spin down    =   3.4011, d =  0.0000, 
                 polarization =   0.4010, s =  0.0082, p =  0.3928, d =  0.0000, 
     Spilling Parameter:   0.0074
 
     PROJWFC      :     18.94s CPU     23.54s WALL

 
   This run was terminated on:  17: 7:24   8Mar2023            

=------------------------------------------------------------------------------=
   JOB DONE.
=------------------------------------------------------------------------------=
