
     Program PWSCF v.6.8 starts on  8Mar2023 at 17: 5:26 

     This program is part of the open-source Quantum ESPRESSO suite
     for quantum simulation of materials; please cite
         "P. Giannozzi et al., J. Phys.:Condens. Matter 21 395502 (2009);
         "P. Giannozzi et al., J. Phys.:Condens. Matter 29 465901 (2017);
         "P. Giannozzi et al., J. Chem. Phys. 152 154105 (2020);
          URL http://www.quantum-espresso.org", 
     in publications or presentations arising from this work. More details at
     http://www.quantum-espresso.org/quote

     Parallel version (MPI & OpenMP), running on      80 processor cores
     Number of MPI processes:                80
     Threads/MPI process:                     1

     MPI processes distributed on     2 nodes
     R & G space division:  proc/nbgrp/npool/nimage =      80
     183320 MiB available memory on the printing compute node when the environment starts
 
     Reading input from scf.in

     Current dimensions of program PWSCF are:
     Max number of different atomic species (ntypx) = 10
     Max number of k-points (npk) =  40000
     Max angular momentum in pseudopotentials (lmaxx) =  4

     Fixed quantization axis for GGA:     0.000000    0.000000    1.000000
     Message from routine setup:
     using ibrav=0 with symmetry is DISCOURAGED, use correct ibrav instead

     Subspace diagonalization in iterative solution of the eigenvalue problem:
     a serial algorithm will be used

 
     Parallelization info
     --------------------
     sticks:   dense  smooth     PW     G-vecs:    dense   smooth      PW
     Min          23      22      6                 5111     4806     684
     Max          24      23      7                 5135     4845     709
     Sum        1879    1789    499               409943   385631   55807
 
     Using Slab Decomposition
 


     bravais-lattice index     =            0
     lattice parameter (alat)  =       7.3605  a.u.
     unit-cell volume          =    2170.2486 (a.u.)^3
     number of atoms/cell      =            3
     number of atomic types    =            2
     number of electrons       =        32.00
     number of Kohn-Sham states=           40
     kinetic-energy cutoff     =     120.0000  Ry
     charge density cutoff     =     500.0000  Ry
     scf convergence threshold =      1.0E-06
     mixing beta               =       0.4000
     number of iterations used =            8  plain     mixing
     Exchange-correlation= PBE
                           (   1   4   3   4   0   0   0)
     Noncollinear calculation without spin-orbit


     celldm(1)=   7.360481  celldm(2)=   0.000000  celldm(3)=   0.000000
     celldm(4)=   0.000000  celldm(5)=   0.000000  celldm(6)=   0.000000

     crystal axes: (cart. coord. in units of alat)
               a(1) = (   1.000000   0.000000   0.000000 )  
               a(2) = (  -0.500000   0.866025   0.000000 )  
               a(3) = (   0.000000   0.000000   6.284350 )  

     reciprocal axes: (cart. coord. in units 2 pi/alat)
               b(1) = (  1.000000  0.577350  0.000000 )  
               b(2) = (  0.000000  1.154701  0.000000 )  
               b(3) = (  0.000000  0.000000  0.159125 )  


     PseudoPot. # 1 for Ni read from file:
     pseudo/Ni.upf
     MD5 check sum: 14a7e289c5fff9cacaba393040e62f02
     Pseudo is Norm-conserving + core correction, Zval = 18.0
     Generated using ONCVPSP code by D. R. Hamann
     Using radial grid of 1372 points,  6 beta functions with: 
                l(1) =   0
                l(2) =   0
                l(3) =   1
                l(4) =   1
                l(5) =   2
                l(6) =   2

     PseudoPot. # 2 for I  read from file:
     pseudo/I.upf
     MD5 check sum: 301f7009ca0a2b18b0adf53dca02d42f
     Pseudo is Norm-conserving + core correction, Zval =  7.0
     Generated using ONCVPSP code by D. R. Hamann
     Using radial grid of 1210 points,  6 beta functions with: 
                l(1) =   0
                l(2) =   0
                l(3) =   1
                l(4) =   1
                l(5) =   2
                l(6) =   2

     atomic species   valence    mass     pseudopotential
        Ni            18.00    58.69340     Ni( 1.00)
        I              7.00   126.90447     I ( 1.00)

     12 Sym. Ops., with inversion, found


                                    s                        frac. trans.

      isym =  1     identity                                     

 Time Reversal            0
 cryst.   s( 1) = (     1          0          0      )
                  (     0          1          0      )
                  (     0          0          1      )

 cart.    s( 1) = (  1.0000000  0.0000000  0.0000000 )
                  (  0.0000000  1.0000000  0.0000000 )
                  (  0.0000000  0.0000000  1.0000000 )


      isym =  2     180 deg rotation - cart. axis [1,0,0]        

 Time Reversal            1
 cryst.   s( 2) = (     1          0          0      )
                  (    -1         -1          0      )
                  (     0          0         -1      )

 cart.    s( 2) = (  1.0000000  0.0000000  0.0000000 )
                  (  0.0000000 -1.0000000  0.0000000 )
                  (  0.0000000  0.0000000 -1.0000000 )


      isym =  3     120 deg rotation - cryst. axis [0,0,1]       

 Time Reversal            0
 cryst.   s( 3) = (     0          1          0      )
                  (    -1         -1          0      )
                  (     0          0          1      )

 cart.    s( 3) = ( -0.5000000 -0.8660254  0.0000000 )
                  (  0.8660254 -0.5000000  0.0000000 )
                  (  0.0000000  0.0000000  1.0000000 )


      isym =  4     120 deg rotation - cryst. axis [0,0,-1]      

 Time Reversal            0
 cryst.   s( 4) = (    -1         -1          0      )
                  (     1          0          0      )
                  (     0          0          1      )

 cart.    s( 4) = ( -0.5000000  0.8660254  0.0000000 )
                  ( -0.8660254 -0.5000000  0.0000000 )
                  (  0.0000000  0.0000000  1.0000000 )


      isym =  5     180 deg rotation - cryst. axis [0,1,0]       

 Time Reversal            1
 cryst.   s( 5) = (    -1         -1          0      )
                  (     0          1          0      )
                  (     0          0         -1      )

 cart.    s( 5) = ( -0.5000000 -0.8660254  0.0000000 )
                  ( -0.8660254  0.5000000  0.0000000 )
                  (  0.0000000  0.0000000 -1.0000000 )


      isym =  6     180 deg rotation - cryst. axis [1,1,0]       

 Time Reversal            1
 cryst.   s( 6) = (     0          1          0      )
                  (     1          0          0      )
                  (     0          0         -1      )

 cart.    s( 6) = ( -0.5000000  0.8660254  0.0000000 )
                  (  0.8660254  0.5000000  0.0000000 )
                  (  0.0000000  0.0000000 -1.0000000 )


      isym =  7     inversion                                    

 Time Reversal            0
 cryst.   s( 7) = (    -1          0          0      )
                  (     0         -1          0      )
                  (     0          0         -1      )

 cart.    s( 7) = ( -1.0000000  0.0000000  0.0000000 )
                  (  0.0000000 -1.0000000  0.0000000 )
                  (  0.0000000  0.0000000 -1.0000000 )


      isym =  8     inv. 180 deg rotation - cart. axis [1,0,0]   

 Time Reversal            1
 cryst.   s( 8) = (    -1          0          0      )
                  (     1          1          0      )
                  (     0          0          1      )

 cart.    s( 8) = ( -1.0000000  0.0000000  0.0000000 )
                  (  0.0000000  1.0000000  0.0000000 )
                  (  0.0000000  0.0000000  1.0000000 )


      isym =  9     inv. 120 deg rotation - cryst. axis [0,0,1]  

 Time Reversal            0
 cryst.   s( 9) = (     0         -1          0      )
                  (     1          1          0      )
                  (     0          0         -1      )

 cart.    s( 9) = (  0.5000000  0.8660254  0.0000000 )
                  ( -0.8660254  0.5000000  0.0000000 )
                  (  0.0000000  0.0000000 -1.0000000 )


      isym = 10     inv. 120 deg rotation - cryst. axis [0,0,-1] 

 Time Reversal            0
 cryst.   s(10) = (     1          1          0      )
                  (    -1          0          0      )
                  (     0          0         -1      )

 cart.    s(10) = (  0.5000000 -0.8660254  0.0000000 )
                  (  0.8660254  0.5000000  0.0000000 )
                  (  0.0000000  0.0000000 -1.0000000 )


      isym = 11     inv. 180 deg rotation - cryst. axis [0,1,0]  

 Time Reversal            1
 cryst.   s(11) = (     1          1          0      )
                  (     0         -1          0      )
                  (     0          0          1      )

 cart.    s(11) = (  0.5000000  0.8660254  0.0000000 )
                  (  0.8660254 -0.5000000  0.0000000 )
                  (  0.0000000  0.0000000  1.0000000 )


      isym = 12     inv. 180 deg rotation - cryst. axis [1,1,0]  

 Time Reversal            1
 cryst.   s(12) = (     0         -1          0      )
                  (    -1          0          0      )
                  (     0          0          1      )

 cart.    s(12) = (  0.5000000 -0.8660254  0.0000000 )
                  ( -0.8660254 -0.5000000  0.0000000 )
                  (  0.0000000  0.0000000  1.0000000 )


   Cartesian axes

     site n.     atom                  positions (alat units)
         1           Ni  tau(   1) = (   0.0000000   0.0000000   3.1421749  )
         2           I   tau(   2) = (  -0.0000000   0.5773503   3.5289144  )
         3           I   tau(   3) = (   0.5000000   0.2886751   2.7554354  )

   Crystallographic axes

     site n.     atom                  positions (cryst. coord.)
         1           Ni  tau(   1) = (  0.0000000  0.0000000  0.5000000  )
         2           I   tau(   2) = (  0.3333333  0.6666667  0.5615401  )
         3           I   tau(   3) = (  0.6666667  0.3333333  0.4384599  )

     number of k points=    10  Marzari-Vanderbilt smearing, width (Ry)=  0.0015
                       cart. coord. in units 2pi/alat
        k(    1) = (   0.0000000   0.0000000   0.0000000), wk =   0.0156250
        k(    2) = (   0.0000000   0.1443376   0.0000000), wk =   0.0937500
        k(    3) = (   0.0000000   0.2886751   0.0000000), wk =   0.0937500
        k(    4) = (   0.0000000   0.4330127   0.0000000), wk =   0.0937500
        k(    5) = (   0.0000000  -0.5773503   0.0000000), wk =   0.0468750
        k(    6) = (   0.1250000   0.2165064   0.0000000), wk =   0.0937500
        k(    7) = (   0.1250000   0.3608439   0.0000000), wk =   0.1875000
        k(    8) = (   0.1250000   0.5051815   0.0000000), wk =   0.1875000
        k(    9) = (   0.2500000   0.4330127   0.0000000), wk =   0.0937500
        k(   10) = (   0.2500000   0.5773503   0.0000000), wk =   0.0937500

                       cryst. coord.
        k(    1) = (   0.0000000   0.0000000   0.0000000), wk =   0.0156250
        k(    2) = (   0.0000000   0.1250000   0.0000000), wk =   0.0937500
        k(    3) = (   0.0000000   0.2500000   0.0000000), wk =   0.0937500
        k(    4) = (   0.0000000   0.3750000   0.0000000), wk =   0.0937500
        k(    5) = (   0.0000000  -0.5000000   0.0000000), wk =   0.0468750
        k(    6) = (   0.1250000   0.1250000   0.0000000), wk =   0.0937500
        k(    7) = (   0.1250000   0.2500000   0.0000000), wk =   0.1875000
        k(    8) = (   0.1250000   0.3750000   0.0000000), wk =   0.1875000
        k(    9) = (   0.2500000   0.2500000   0.0000000), wk =   0.0937500
        k(   10) = (   0.2500000   0.3750000   0.0000000), wk =   0.0937500

     Dense  grid:   409943 G-vectors     FFT dimensions: (  54,  54, 360)

     Smooth grid:   385631 G-vectors     FFT dimensions: (  54,  54, 324)

     Dynamical RAM for                 wfc:       0.73 MB

     Dynamical RAM for     wfc (w. buffer):       8.08 MB

     Dynamical RAM for           str. fact:       0.16 MB

     Dynamical RAM for           local pot:       0.00 MB

     Dynamical RAM for          nlocal pot:       0.50 MB

     Dynamical RAM for                qrad:       3.59 MB

     Dynamical RAM for          rho,v,vnew:       2.27 MB

     Dynamical RAM for               rhoin:       0.76 MB

     Dynamical RAM for            rho*nmix:       4.99 MB

     Dynamical RAM for           G-vectors:       0.33 MB

     Dynamical RAM for          h,s,v(r/c):       0.29 MB

     Dynamical RAM for          <psi|beta>:       0.07 MB

     Dynamical RAM for                 psi:       1.47 MB

     Dynamical RAM for                hpsi:       1.47 MB

     Dynamical RAM for      wfcinit/wfcrot:       1.14 MB

     Estimated static dynamical RAM per process >      16.81 MB

     Estimated max dynamical RAM per process >      25.10 MB

     Estimated total dynamical RAM >       1.96 GB
     Generating pointlists ...
     new r_m :   0.2867 (alat units)  2.1099 (a.u.) for type    1
     new r_m :   0.2867 (alat units)  2.1099 (a.u.) for type    2

     Initial potential from superposition of free atoms

     starting charge   31.99961, renormalised to   32.00000

     negative rho (up, down):  3.817E-06 5.460E-03

 ==============================================================================
     atom number    1 relative position :    0.0000   0.0000   3.1422
     charge :    16.779238  (integrated on a sphere of radius 0.287)
     magnetization :          0.000000    0.000000    4.599688
     magnetization/charge:    0.000000    0.000000    0.274130
     polar coord.: r, theta, phi [deg] :     4.599688    0.000000  360.000000

 ==============================================================================

 ==============================================================================
     atom number    2 relative position :   -0.0000   0.5774   3.5289
     charge :     4.047635  (integrated on a sphere of radius 0.287)
     magnetization :          0.000000    0.000000    0.423450
     magnetization/charge:    0.000000    0.000000    0.104617
     polar coord.: r, theta, phi [deg] :     0.423450    0.000000  360.000000

 ==============================================================================

 ==============================================================================
     atom number    3 relative position :    0.5000   0.2887   2.7554
     charge :     4.047635  (integrated on a sphere of radius 0.287)
     magnetization :          0.000000    0.000000    0.423450
     magnetization/charge:    0.000000    0.000000    0.104617
     polar coord.: r, theta, phi [deg] :     0.423450    0.000000  360.000000

 ==============================================================================
     Starting wfcs are   36 randomized atomic wfcs +    4 random wfcs

     total cpu time spent up to now is        5.1 secs

     Self-consistent Calculation

     iteration #  1     ecut=   120.00 Ry     beta= 0.40
     Davidson diagonalization with overlap

---- Real-time Memory Report at c_bands before calling an iterative solver
           155 MiB given to the printing process from OS
             0 MiB allocation reported by mallinfo(arena+hblkhd)
        181523 MiB available memory on the node where the printing process lives
------------------
     ethr =  1.00E-02,  avg # of iterations =  5.5

     negative rho (up, down):  1.063E-06 2.287E-02

     total cpu time spent up to now is        7.6 secs

     total energy              =    -387.12065643 Ry
     estimated scf accuracy    <       0.79665264 Ry

     total magnetization       =    -0.00    -0.00     2.00 Bohr mag/cell
     absolute magnetization    =     2.08 Bohr mag/cell

     iteration #  2     ecut=   120.00 Ry     beta= 0.40
     Davidson diagonalization with overlap

---- Real-time Memory Report at c_bands before calling an iterative solver
           178 MiB given to the printing process from OS
             0 MiB allocation reported by mallinfo(arena+hblkhd)
        181012 MiB available memory on the node where the printing process lives
------------------
     ethr =  2.49E-03,  avg # of iterations =  2.4

     negative rho (up, down):  6.493E-07 4.374E-02

     total cpu time spent up to now is        9.6 secs

     total energy              =    -387.15740600 Ry
     estimated scf accuracy    <       0.80988579 Ry

     total magnetization       =     0.00    -0.00     2.00 Bohr mag/cell
     absolute magnetization    =     2.19 Bohr mag/cell

     iteration #  3     ecut=   120.00 Ry     beta= 0.40
     Davidson diagonalization with overlap

---- Real-time Memory Report at c_bands before calling an iterative solver
           186 MiB given to the printing process from OS
             0 MiB allocation reported by mallinfo(arena+hblkhd)
        180764 MiB available memory on the node where the printing process lives
------------------
     ethr =  2.49E-03,  avg # of iterations =  2.0

     negative rho (up, down):  1.171E-06 3.861E-02

     total cpu time spent up to now is       11.4 secs

     total energy              =    -387.32646184 Ry
     estimated scf accuracy    <       0.17289373 Ry

     total magnetization       =    -0.00    -0.00     2.00 Bohr mag/cell
     absolute magnetization    =     2.10 Bohr mag/cell

     iteration #  4     ecut=   120.00 Ry     beta= 0.40
     Davidson diagonalization with overlap

---- Real-time Memory Report at c_bands before calling an iterative solver
           187 MiB given to the printing process from OS
             0 MiB allocation reported by mallinfo(arena+hblkhd)
        180737 MiB available memory on the node where the printing process lives
------------------
     ethr =  5.40E-04,  avg # of iterations =  3.4

     negative rho (up, down):  6.068E-07 3.539E-02

     total cpu time spent up to now is       13.2 secs

     total energy              =    -387.33336617 Ry
     estimated scf accuracy    <       0.00556724 Ry

     total magnetization       =    -0.00    -0.00     2.00 Bohr mag/cell
     absolute magnetization    =     2.10 Bohr mag/cell

     iteration #  5     ecut=   120.00 Ry     beta= 0.40
     Davidson diagonalization with overlap

---- Real-time Memory Report at c_bands before calling an iterative solver
           188 MiB given to the printing process from OS
             0 MiB allocation reported by mallinfo(arena+hblkhd)
        180716 MiB available memory on the node where the printing process lives
------------------
     c_bands:  1 eigenvalues not converged
     ethr =  1.74E-05,  avg # of iterations = 11.0

     negative rho (up, down):  4.192E-07 1.673E-02

     total cpu time spent up to now is       16.0 secs

     total energy              =    -387.33435145 Ry
     estimated scf accuracy    <       0.00050765 Ry

     total magnetization       =    -0.00     0.00     2.00 Bohr mag/cell
     absolute magnetization    =     2.09 Bohr mag/cell

     iteration #  6     ecut=   120.00 Ry     beta= 0.40
     Davidson diagonalization with overlap

---- Real-time Memory Report at c_bands before calling an iterative solver
           192 MiB given to the printing process from OS
             0 MiB allocation reported by mallinfo(arena+hblkhd)
        180688 MiB available memory on the node where the printing process lives
------------------
     ethr =  1.59E-06,  avg # of iterations =  9.6

     negative rho (up, down):  2.318E-07 9.292E-03

     total cpu time spent up to now is       18.5 secs

     total energy              =    -387.33444629 Ry
     estimated scf accuracy    <       0.00014402 Ry

     total magnetization       =    -0.00    -0.00     2.00 Bohr mag/cell
     absolute magnetization    =     2.09 Bohr mag/cell

     iteration #  7     ecut=   120.00 Ry     beta= 0.40
     Davidson diagonalization with overlap

---- Real-time Memory Report at c_bands before calling an iterative solver
           193 MiB given to the printing process from OS
             0 MiB allocation reported by mallinfo(arena+hblkhd)
        180672 MiB available memory on the node where the printing process lives
------------------
     ethr =  4.50E-07,  avg # of iterations =  2.0

     negative rho (up, down):  1.725E-07 2.058E-04

     total cpu time spent up to now is       20.4 secs

     total energy              =    -387.33448537 Ry
     estimated scf accuracy    <       0.00017076 Ry

     total magnetization       =     0.00    -0.00     2.00 Bohr mag/cell
     absolute magnetization    =     2.08 Bohr mag/cell

     iteration #  8     ecut=   120.00 Ry     beta= 0.40
     Davidson diagonalization with overlap

---- Real-time Memory Report at c_bands before calling an iterative solver
           195 MiB given to the printing process from OS
             0 MiB allocation reported by mallinfo(arena+hblkhd)
        180655 MiB available memory on the node where the printing process lives
------------------
     ethr =  4.50E-07,  avg # of iterations =  2.0

     negative rho (up, down):  1.048E-07 1.467E-04

     total cpu time spent up to now is       22.1 secs

     total energy              =    -387.33450050 Ry
     estimated scf accuracy    <       0.00000454 Ry

     total magnetization       =    -0.00     0.00     2.00 Bohr mag/cell
     absolute magnetization    =     2.08 Bohr mag/cell

     iteration #  9     ecut=   120.00 Ry     beta= 0.40
     Davidson diagonalization with overlap

---- Real-time Memory Report at c_bands before calling an iterative solver
           198 MiB given to the printing process from OS
             0 MiB allocation reported by mallinfo(arena+hblkhd)
        180621 MiB available memory on the node where the printing process lives
------------------
     ethr =  1.42E-08,  avg # of iterations =  3.5

     negative rho (up, down):  4.849E-08 1.505E-04

     total cpu time spent up to now is       24.3 secs

     total energy              =    -387.33450144 Ry
     estimated scf accuracy    <       0.00000174 Ry

     total magnetization       =     0.00    -0.00     2.00 Bohr mag/cell
     absolute magnetization    =     2.08 Bohr mag/cell

     iteration # 10     ecut=   120.00 Ry     beta= 0.40
     Davidson diagonalization with overlap

---- Real-time Memory Report at c_bands before calling an iterative solver
           199 MiB given to the printing process from OS
             0 MiB allocation reported by mallinfo(arena+hblkhd)
        180580 MiB available memory on the node where the printing process lives
------------------
     ethr =  5.44E-09,  avg # of iterations =  2.0

 ==============================================================================
     atom number    1 relative position :    0.0000   0.0000   3.1422
     charge :    16.882565  (integrated on a sphere of radius 0.287)
     magnetization :          0.000000   -0.000000    1.260281
     magnetization/charge:    0.000000   -0.000000    0.074650
     polar coord.: r, theta, phi [deg] :     1.260281    0.000000  360.000000

 ==============================================================================

 ==============================================================================
     atom number    2 relative position :   -0.0000   0.5774   3.5289
     charge :     4.050251  (integrated on a sphere of radius 0.287)
     magnetization :          0.000000   -0.000000    0.226499
     magnetization/charge:    0.000000   -0.000000    0.055922
     polar coord.: r, theta, phi [deg] :     0.226499    0.000000  360.000000

 ==============================================================================

 ==============================================================================
     atom number    3 relative position :    0.5000   0.2887   2.7554
     charge :     4.050251  (integrated on a sphere of radius 0.287)
     magnetization :          0.000000   -0.000000    0.226499
     magnetization/charge:    0.000000   -0.000000    0.055922
     polar coord.: r, theta, phi [deg] :     0.226499    0.000000  360.000000

 ==============================================================================

     total cpu time spent up to now is       26.2 secs

     End of self-consistent calculation

          k = 0.0000 0.0000 0.0000 ( 48107 PWs)   bands (ev):

  -105.9897-104.6184 -66.4637 -66.4097 -66.4097 -64.9535 -64.9422 -64.9422
   -15.7931 -15.5680 -14.8517 -14.5952  -6.8594  -6.6404  -5.8099  -5.8099
    -4.5650  -4.5650  -4.2763  -4.2763  -3.9113  -3.7901  -3.5471  -3.3357
    -3.3357  -3.1762  -2.8793  -2.8793  -2.6266  -2.6266  -1.9811  -1.9811
    -0.8847  -0.8847   1.7682   1.9004   2.5084   2.6128   2.6835   2.7570

     occupation numbers 
     1.0000   1.0000   1.0000   1.0000   1.0000   1.0000   1.0000   1.0000
     1.0000   1.0000   1.0000   1.0000   1.0000   1.0000   1.0000   1.0000
     1.0000   1.0000   1.0000   1.0000   1.0000   1.0000   1.0000   1.0000
     1.0000   1.0000   1.0000   1.0000   1.0000   1.0000   1.0000   1.0000
     0.0000   0.0000   0.0000   0.0000   0.0000   0.0000   0.0000   0.0000

          k = 0.0000 0.1443 0.0000 ( 48142 PWs)   bands (ev):

  -105.9897-104.6184 -66.4637 -66.4098 -66.4098 -64.9535 -64.9423 -64.9422
   -15.6738 -15.4468 -14.7874 -14.5287  -6.7401  -6.5244  -5.9553  -5.7975
    -4.9582  -4.5530  -4.5406  -4.3426  -4.0620  -3.8621  -3.6166  -3.5218
    -3.3490  -3.3209  -3.2891  -3.0258  -2.7904  -2.6658  -2.5748  -2.0683
    -1.3536  -0.9596   2.2380   2.3665   2.8207   2.9048   2.9588   3.1039

     occupation numbers 
     1.0000   1.0000   1.0000   1.0000   1.0000   1.0000   1.0000   1.0000
     1.0000   1.0000   1.0000   1.0000   1.0000   1.0000   1.0000   1.0000
     1.0000   1.0000   1.0000   1.0000   1.0000   1.0000   1.0000   1.0000
     1.0000   1.0000   1.0000   1.0000   1.0000   1.0000   1.0000   1.0000
     0.0000   0.0000   0.0000   0.0000   0.0000   0.0000   0.0000   0.0000

          k = 0.0000 0.2887 0.0000 ( 48148 PWs)   bands (ev):

  -105.9897-104.6184 -66.4637 -66.4100 -66.4098 -64.9534 -64.9425 -64.9422
   -15.3504 -15.1176 -14.6328 -14.3688  -6.5527  -6.3537  -6.2729  -5.7731
    -5.7422  -5.5130  -4.9203  -4.5257  -4.4682  -4.2034  -3.9007  -3.8760
    -3.5952  -3.5052  -3.4156  -3.3061  -2.9550  -2.9020  -2.8531  -2.1871
    -1.6062  -1.0486   1.9589   2.1582   2.9332   3.0523   3.2259   3.3372

     occupation numbers 
     1.0000   1.0000   1.0000   1.0000   1.0000   1.0000   1.0000   1.0000
     1.0000   1.0000   1.0000   1.0000   1.0000   1.0000   1.0000   1.0000
     1.0000   1.0000   1.0000   1.0000   1.0000   1.0000   1.0000   1.0000
     1.0000   1.0000   1.0000   1.0000   1.0000   1.0000   1.0000   1.0000
     0.0000   0.0000   0.0000   0.0000   0.0000   0.0000   0.0000   0.0000

          k = 0.0000 0.4330 0.0000 ( 48212 PWs)   bands (ev):

  -105.9897-104.6184 -66.4637 -66.4102 -66.4098 -64.9534 -64.9426 -64.9423
   -14.9405 -14.6980 -14.5030 -14.2347  -7.1811  -6.9860  -6.5043  -6.2076
    -5.7617  -5.6257  -5.0084  -4.6165  -4.5162  -4.5019  -4.2492  -4.1628
    -4.0240  -3.8438  -3.7812  -3.3310  -3.0758  -3.0421  -2.6477  -2.2469
    -1.3507  -1.0768   1.1413   1.3701   3.0560   3.2106   3.5022   3.6702

     occupation numbers 
     1.0000   1.0000   1.0000   1.0000   1.0000   1.0000   1.0000   1.0000
     1.0000   1.0000   1.0000   1.0000   1.0000   1.0000   1.0000   1.0000
     1.0000   1.0000   1.0000   1.0000   1.0000   1.0000   1.0000   1.0000
     1.0000   1.0000   1.0000   1.0000   1.0000   1.0000   1.0000   1.0000
     0.0000   0.0000   0.0000   0.0000   0.0000   0.0000   0.0000   0.0000

          k = 0.0000-0.5774 0.0000 ( 48254 PWs)   bands (ev):

  -105.9897-104.6184 -66.4636 -66.4102 -66.4099 -64.9534 -64.9427 -64.9423
   -14.6934 -14.5031 -14.4451 -14.2337  -7.5860  -7.3917  -6.6057  -6.4093
    -5.7626  -5.5734  -4.6534  -4.6019  -4.4934  -4.4819  -4.4324  -4.3194
    -4.2696  -4.0590  -3.9338  -3.3398  -3.1673  -3.1548  -2.5306  -2.2638
    -1.2196  -1.0809   0.8551   1.1099   2.9619   3.1059   3.6818   3.8318

     occupation numbers 
     1.0000   1.0000   1.0000   1.0000   1.0000   1.0000   1.0000   1.0000
     1.0000   1.0000   1.0000   1.0000   1.0000   1.0000   1.0000   1.0000
     1.0000   1.0000   1.0000   1.0000   1.0000   1.0000   1.0000   1.0000
     1.0000   1.0000   1.0000   1.0000   1.0000   1.0000   1.0000   1.0000
     0.0000   0.0000   0.0000   0.0000   0.0000   0.0000   0.0000   0.0000

          k = 0.1250 0.2165 0.0000 ( 48125 PWs)   bands (ev):

  -105.9897-104.6184 -66.4637 -66.4099 -66.4098 -64.9534 -64.9424 -64.9422
   -15.4520 -15.2211 -14.6771 -14.4146  -6.5624  -6.3571  -6.1560  -5.8142
    -5.4468  -5.0485  -4.7864  -4.7307  -4.5651  -4.0957  -3.8840  -3.6514
    -3.5547  -3.3856  -3.3401  -3.3131  -2.8746  -2.7919  -2.6538  -2.5114
    -1.4393  -1.2913   2.6618   2.8806   2.9092   3.0178   3.0420   3.1464

     occupation numbers 
     1.0000   1.0000   1.0000   1.0000   1.0000   1.0000   1.0000   1.0000
     1.0000   1.0000   1.0000   1.0000   1.0000   1.0000   1.0000   1.0000
     1.0000   1.0000   1.0000   1.0000   1.0000   1.0000   1.0000   1.0000
     1.0000   1.0000   1.0000   1.0000   1.0000   1.0000   1.0000   1.0000
     0.0000   0.0000   0.0000   0.0000   0.0000   0.0000   0.0000   0.0000

          k = 0.1250 0.3608 0.0000 ( 48162 PWs)   bands (ev):

  -105.9897-104.6184 -66.4637 -66.4101 -66.4099 -64.9534 -64.9426 -64.9423
   -15.0813 -14.8423 -14.5295 -14.2622  -6.7514  -6.5485  -6.4004  -6.0242
    -5.8174  -5.6081  -5.1833  -5.0823  -4.7200  -4.3042  -4.3018  -4.0747
    -3.7996  -3.7561  -3.5391  -3.2957  -3.0236  -2.8920  -2.8367  -2.5046
    -1.5322  -1.2494   1.9708   2.2022   3.2734   3.4216   3.6690   3.7771

     occupation numbers 
     1.0000   1.0000   1.0000   1.0000   1.0000   1.0000   1.0000   1.0000
     1.0000   1.0000   1.0000   1.0000   1.0000   1.0000   1.0000   1.0000
     1.0000   1.0000   1.0000   1.0000   1.0000   1.0000   1.0000   1.0000
     1.0000   1.0000   1.0000   1.0000   1.0000   1.0000   1.0000   1.0000
     0.0000   0.0000   0.0000   0.0000   0.0000   0.0000   0.0000   0.0000

          k = 0.1250 0.5052 0.0000 ( 48212 PWs)   bands (ev):

  -105.9897-104.6184 -66.4636 -66.4102 -66.4099 -64.9534 -64.9427 -64.9424
   -14.7274 -14.4785 -14.4726 -14.2039  -7.3739  -7.1803  -6.5385  -6.2942
    -5.7745  -5.5443  -5.2111  -5.0566  -4.7228  -4.6279  -4.6064  -4.2044
    -4.0694  -4.0119  -3.7754  -3.2403  -3.1620  -3.0400  -2.6991  -2.5151
    -1.4153  -1.2150   1.4034   1.6502   3.5773   3.7276   3.9834   4.1589

     occupation numbers 
     1.0000   1.0000   1.0000   1.0000   1.0000   1.0000   1.0000   1.0000
     1.0000   1.0000   1.0000   1.0000   1.0000   1.0000   1.0000   1.0000
     1.0000   1.0000   1.0000   1.0000   1.0000   1.0000   1.0000   1.0000
     1.0000   1.0000   1.0000   1.0000   1.0000   1.0000   1.0000   1.0000
     0.0000   0.0000   0.0000   0.0000   0.0000   0.0000   0.0000   0.0000

          k = 0.2500 0.4330 0.0000 ( 48187 PWs)   bands (ev):

  -105.9897-104.6184 -66.4636 -66.4101 -66.4100 -64.9534 -64.9426 -64.9424
   -14.7546 -14.5057 -14.4489 -14.1803  -7.0403  -6.8395  -6.4629  -6.2209
    -5.9945  -5.6180  -5.5538  -5.4901  -4.7918  -4.7678  -4.7197  -4.1053
    -4.0435  -3.9446  -3.6377  -3.2118  -3.1623  -3.0793  -2.9377  -2.5585
    -1.6721  -1.2356   2.0282   2.2772   3.3684   3.5110   4.6351   4.7481

     occupation numbers 
     1.0000   1.0000   1.0000   1.0000   1.0000   1.0000   1.0000   1.0000
     1.0000   1.0000   1.0000   1.0000   1.0000   1.0000   1.0000   1.0000
     1.0000   1.0000   1.0000   1.0000   1.0000   1.0000   1.0000   1.0000
     1.0000   1.0000   1.0000   1.0000   1.0000   1.0000   1.0000   1.0000
     0.0000   0.0000   0.0000   0.0000   0.0000   0.0000   0.0000   0.0000

          k = 0.2500 0.5774 0.0000 ( 48231 PWs)   bands (ev):

  -105.9897-104.6184 -66.4636 -66.4101 -66.4100 -64.9534 -64.9426 -64.9425
   -14.5587 -14.4635 -14.3018 -14.1976  -7.1788  -7.0004  -6.4694  -6.1714
    -6.1592  -5.9042  -5.6249  -5.4843  -5.0964  -5.0417  -4.4399  -4.3624
    -4.0848  -3.8414  -3.7641  -3.2908  -3.0720  -3.0177  -2.9700  -2.7197
    -1.5673  -1.3670   1.8487   2.0932   4.0026   4.1689   4.1726   4.3286

     occupation numbers 
     1.0000   1.0000   1.0000   1.0000   1.0000   1.0000   1.0000   1.0000
     1.0000   1.0000   1.0000   1.0000   1.0000   1.0000   1.0000   1.0000
     1.0000   1.0000   1.0000   1.0000   1.0000   1.0000   1.0000   1.0000
     1.0000   1.0000   1.0000   1.0000   1.0000   1.0000   1.0000   1.0000
     0.0000   0.0000   0.0000   0.0000   0.0000   0.0000   0.0000   0.0000

     the Fermi energy is    -1.7810 ev

!    total energy              =    -387.33450175 Ry
     estimated scf accuracy    <       0.00000035 Ry
     smearing contrib. (-TS)   =      -0.00000000 Ry
     internal energy E=F+TS    =    -387.33450175 Ry

     The total energy is F=E-TS. E is the sum of the following terms:
     one-electron contribution =   -1776.11707074 Ry
     hartree contribution      =     888.97581911 Ry
     xc contribution           =     -58.82687806 Ry
     ewald contribution        =     558.63362794 Ry

     total magnetization       =    -0.00    -0.00     2.00 Bohr mag/cell
     absolute magnetization    =     2.08 Bohr mag/cell

     convergence has been achieved in  10 iterations

     Writing output data file ./tmp/nnso.save/
 
     init_run     :      2.09s CPU      3.51s WALL (       1 calls)
     electrons    :     20.78s CPU     21.16s WALL (       1 calls)

     Called by init_run:
     wfcinit      :      0.71s CPU      1.36s WALL (       1 calls)
     wfcinit:atom :      0.00s CPU      0.01s WALL (      10 calls)
     wfcinit:wfcr :      0.69s CPU      1.33s WALL (      10 calls)
     potinit      :      0.42s CPU      0.52s WALL (       1 calls)
     hinit0       :      0.82s CPU      1.41s WALL (       1 calls)

     Called by electrons:
     c_bands      :     16.77s CPU     16.98s WALL (      10 calls)
     sum_band     :      3.08s CPU      3.11s WALL (      10 calls)
     v_of_rho     :      0.64s CPU      0.72s WALL (      11 calls)
     v_h          :      0.01s CPU      0.02s WALL (      11 calls)
     v_xc         :      0.62s CPU      0.70s WALL (      11 calls)
     mix_rho      :      0.23s CPU      0.27s WALL (      10 calls)

     Called by c_bands:
     init_us_2    :      0.12s CPU      0.13s WALL (     210 calls)
     cegterg      :     16.24s CPU     16.44s WALL (     100 calls)

     Called by sum_band:
     sum_band:wei :      0.00s CPU      0.01s WALL (      10 calls)
     sum_band:loo :      2.98s CPU      3.01s WALL (      10 calls)
     sum_band:buf :      0.05s CPU      0.05s WALL (     100 calls)
     sum_band:ini :      0.06s CPU      0.06s WALL (     100 calls)

     Called by *egterg:
     cdiaghg      :      1.14s CPU      1.75s WALL (     534 calls)
     cegterg:over :      0.50s CPU      0.51s WALL (     434 calls)
     cegterg:upda :      0.34s CPU      0.34s WALL (     434 calls)
     cegterg:last :      0.31s CPU      0.31s WALL (     208 calls)
     h_psi        :     14.28s CPU     14.48s WALL (     544 calls)
     g_psi        :      0.03s CPU      0.03s WALL (     434 calls)

     Called by h_psi:
     h_psi:calbec :      0.36s CPU      0.41s WALL (     544 calls)
     vloc_psi     :     13.62s CPU     13.76s WALL (     544 calls)
     add_vuspsi   :      0.23s CPU      0.24s WALL (     544 calls)

     General routines
     calbec       :      0.35s CPU      0.40s WALL (     544 calls)
     fft          :      0.58s CPU      1.20s WALL (     349 calls)
     ffts         :      0.06s CPU      0.06s WALL (      84 calls)
     fftw         :     15.09s CPU     15.24s WALL (   49048 calls)
     interpolate  :      0.06s CPU      0.07s WALL (      44 calls)
 
     Parallel routines
 
     PWSCF        :     24.54s CPU     28.67s WALL

 
   This run was terminated on:  17: 5:55   8Mar2023            

=------------------------------------------------------------------------------=
   JOB DONE.
=------------------------------------------------------------------------------=
