
     Program PROJWFC v.6.8 starts on  8Mar2023 at 17: 3:52 

     This program is part of the open-source Quantum ESPRESSO suite
     for quantum simulation of materials; please cite
         "P. Giannozzi et al., J. Phys.:Condens. Matter 21 395502 (2009);
         "P. Giannozzi et al., J. Phys.:Condens. Matter 29 465901 (2017);
         "P. Giannozzi et al., J. Chem. Phys. 152 154105 (2020);
          URL http://www.quantum-espresso.org", 
     in publications or presentations arising from this work. More details at
     http://www.quantum-espresso.org/quote

     Parallel version (MPI & OpenMP), running on      80 processor cores
     Number of MPI processes:                80
     Threads/MPI process:                     1

     MPI processes distributed on     2 nodes
     R & G space division:  proc/nbgrp/npool/nimage =      80
     184345 MiB available memory on the printing compute node when the environment starts
 

     Reading xml data from directory:

     ./tmp/c.save/

     IMPORTANT: XC functional enforced from input :
     Exchange-correlation= PBE
                           (   1   4   3   4   0   0   0)
     Any further DFT definition will be discarded
     Please, verify this is what you really want

 
     Parallelization info
     --------------------
     sticks:   dense  smooth     PW     G-vecs:    dense   smooth      PW
     Min          23      22      6                 5111     4806     684
     Max          24      23      7                 5135     4845     709
     Sum        1879    1789    499               409943   385631   55807
 
     Using Slab Decomposition
 

     Gaussian broadening (read from input): ngauss,degauss=   0    0.001000


     Calling projwave .... 

     Subspace diagonalization in iterative solution of the eigenvalue problem:
     a serial algorithm will be used

 
  Problem Sizes 
  natomwfc =           18
  nbnd     =           20
  nkstot   =           30
  npwx     =          622
  nkb      =           54
 

     Atomic states used for projection
     (read from pseudopotential files):

     state #   1: atom   1 (Ni ), wfc  1 (l=0 m= 1)
     state #   2: atom   1 (Ni ), wfc  2 (l=1 m= 1)
     state #   3: atom   1 (Ni ), wfc  2 (l=1 m= 2)
     state #   4: atom   1 (Ni ), wfc  2 (l=1 m= 3)
     state #   5: atom   1 (Ni ), wfc  3 (l=2 m= 1)
     state #   6: atom   1 (Ni ), wfc  3 (l=2 m= 2)
     state #   7: atom   1 (Ni ), wfc  3 (l=2 m= 3)
     state #   8: atom   1 (Ni ), wfc  3 (l=2 m= 4)
     state #   9: atom   1 (Ni ), wfc  3 (l=2 m= 5)
     state #  10: atom   1 (Ni ), wfc  4 (l=0 m= 1)
     state #  11: atom   2 (I  ), wfc  1 (l=0 m= 1)
     state #  12: atom   2 (I  ), wfc  2 (l=1 m= 1)
     state #  13: atom   2 (I  ), wfc  2 (l=1 m= 2)
     state #  14: atom   2 (I  ), wfc  2 (l=1 m= 3)
     state #  15: atom   3 (I  ), wfc  1 (l=0 m= 1)
     state #  16: atom   3 (I  ), wfc  2 (l=1 m= 1)
     state #  17: atom   3 (I  ), wfc  2 (l=1 m= 2)
     state #  18: atom   3 (I  ), wfc  2 (l=1 m= 3)

 k =   0.0000000000  0.0000000000  0.0000000000
==== e(   1) =  -104.63490 eV ==== 
     psi = 0.996*[#   1]+0.002*[#  12]+0.002*[#  16]
    |psi|^2 = 1.000
==== e(   2) =   -65.02905 eV ==== 
     psi = 0.999*[#   2]
    |psi|^2 = 1.000
==== e(   3) =   -65.02759 eV ==== 
     psi = 0.500*[#   3]+0.500*[#   4]
    |psi|^2 = 1.000
==== e(   4) =   -65.02759 eV ==== 
     psi = 0.500*[#   3]+0.500*[#   4]
    |psi|^2 = 1.000
==== e(   5) =   -15.75336 eV ==== 
     psi = 0.366*[#  11]+0.366*[#  15]+0.257*[#  10]+0.004*[#  12]+0.004*[#  16]
          +0.001*[#   1]
    |psi|^2 = 1.000
==== e(   6) =   -14.83052 eV ==== 
     psi = 0.495*[#  11]+0.495*[#  15]+0.003*[#  12]+0.003*[#  16]
    |psi|^2 = 0.997
==== e(   7) =    -6.73901 eV ==== 
     psi = 0.391*[#  12]+0.391*[#  16]+0.075*[#  10]+0.066*[#   5]+0.035*[#  11]
          +0.035*[#  15]+0.003*[#   1]
    |psi|^2 = 0.995
==== e(   8) =    -4.83534 eV ==== 
     psi = 0.181*[#   8]+0.181*[#   9]+0.111*[#  13]+0.111*[#  14]+0.111*[#  17]
          +0.111*[#  18]+0.092*[#   6]+0.092*[#   7]
    |psi|^2 = 0.991
==== e(   9) =    -4.83534 eV ==== 
     psi = 0.181*[#   8]+0.181*[#   9]+0.111*[#  13]+0.111*[#  14]+0.111*[#  17]
          +0.111*[#  18]+0.092*[#   6]+0.092*[#   7]
    |psi|^2 = 0.991
==== e(  10) =    -3.74107 eV ==== 
     psi = 0.494*[#  12]+0.494*[#  16]+0.003*[#  11]+0.003*[#  15]
    |psi|^2 = 0.995
==== e(  11) =    -3.25565 eV ==== 
     psi = 0.336*[#   6]+0.336*[#   7]+0.156*[#   8]+0.156*[#   9]
    |psi|^2 = 0.984
==== e(  12) =    -3.25565 eV ==== 
     psi = 0.336*[#   6]+0.336*[#   7]+0.156*[#   8]+0.156*[#   9]
    |psi|^2 = 0.984
==== e(  13) =    -2.99980 eV ==== 
     psi = 0.911*[#   5]+0.023*[#  10]+0.021*[#  12]+0.021*[#  16]+0.005*[#  11]
          +0.005*[#  15]
    |psi|^2 = 0.986
==== e(  14) =    -2.82994 eV ==== 
     psi = 0.246*[#  13]+0.246*[#  14]+0.246*[#  17]+0.246*[#  18]
    |psi|^2 = 0.985
==== e(  15) =    -2.82994 eV ==== 
     psi = 0.246*[#  13]+0.246*[#  14]+0.246*[#  17]+0.246*[#  18]
    |psi|^2 = 0.985
==== e(  16) =    -1.30589 eV ==== 
     psi = 0.157*[#   8]+0.157*[#   9]+0.138*[#  13]+0.138*[#  14]+0.138*[#  17]
          +0.138*[#  18]+0.066*[#   6]+0.066*[#   7]
    |psi|^2 = 0.998
==== e(  17) =    -1.30589 eV ==== 
     psi = 0.157*[#   8]+0.157*[#   9]+0.138*[#  13]+0.138*[#  14]+0.138*[#  17]
          +0.138*[#  18]+0.066*[#   6]+0.066*[#   7]
    |psi|^2 = 0.998
==== e(  18) =     1.84514 eV ==== 
     psi = 0.379*[#  10]+0.054*[#  11]+0.054*[#  15]+0.049*[#  12]+0.049*[#  16]
          +0.002*[#   5]
    |psi|^2 = 0.588
==== e(  19) =     2.57697 eV ==== 
     psi = 0.001*[#  11]+0.001*[#  15]
    |psi|^2 = 0.004
==== e(  20) =     2.72417 eV ==== 
 
    |psi|^2 = 0.000

 k =   0.0000000000  0.0721687836  0.0000000000
==== e(   1) =  -104.63490 eV ==== 
     psi = 0.996*[#   1]+0.002*[#  12]+0.002*[#  16]
    |psi|^2 = 1.000
==== e(   2) =   -65.02904 eV ==== 
     psi = 0.999*[#   2]
    |psi|^2 = 1.000
==== e(   3) =   -65.02761 eV ==== 
     psi = 0.500*[#   3]+0.500*[#   4]
    |psi|^2 = 1.000
==== e(   4) =   -65.02759 eV ==== 
     psi = 0.500*[#   3]+0.500*[#   4]
    |psi|^2 = 1.000
==== e(   5) =   -15.72332 eV ==== 
     psi = 0.369*[#  11]+0.369*[#  15]+0.250*[#  10]+0.004*[#  12]+0.004*[#  16]
          +0.001*[#   1]
    |psi|^2 = 1.000
==== e(   6) =   -14.81355 eV ==== 
     psi = 0.494*[#  11]+0.494*[#  15]+0.003*[#  12]+0.003*[#  16]
    |psi|^2 = 0.997
==== e(   7) =    -6.70846 eV ==== 
     psi = 0.389*[#  12]+0.389*[#  16]+0.078*[#  10]+0.064*[#   5]+0.035*[#  11]
          +0.035*[#  15]+0.003*[#   1]
    |psi|^2 = 0.995
==== e(   8) =    -4.93669 eV ==== 
     psi = 0.168*[#   8]+0.168*[#   9]+0.111*[#  13]+0.111*[#  14]+0.111*[#  17]
          +0.111*[#  18]+0.080*[#   6]+0.080*[#   7]+0.024*[#  12]+0.024*[#  16]
          
    |psi|^2 = 0.991
==== e(   9) =    -4.83378 eV ==== 
     psi = 0.176*[#   8]+0.176*[#   9]+0.113*[#  13]+0.113*[#  14]+0.113*[#  17]
          +0.113*[#  18]+0.094*[#   6]+0.094*[#   7]
    |psi|^2 = 0.991
==== e(  10) =    -3.67053 eV ==== 
     psi = 0.469*[#  12]+0.469*[#  16]+0.008*[#  13]+0.008*[#  14]+0.008*[#  17]
          +0.008*[#  18]+0.005*[#   6]+0.005*[#   7]+0.004*[#   8]+0.004*[#   9]
          +0.002*[#  11]+0.002*[#  15]
    |psi|^2 = 0.993
==== e(  11) =    -3.42290 eV ==== 
     psi = 0.202*[#   6]+0.202*[#   7]+0.085*[#  13]+0.085*[#  14]+0.085*[#  17]
          +0.085*[#  18]+0.075*[#   5]+0.072*[#   8]+0.072*[#   9]+0.010*[#  10]
          +0.003*[#  11]+0.003*[#  15]
    |psi|^2 = 0.983
==== e(  12) =    -3.34472 eV ==== 
     psi = 0.283*[#   6]+0.283*[#   7]+0.121*[#   8]+0.121*[#   9]+0.044*[#  13]
          +0.044*[#  14]+0.044*[#  17]+0.044*[#  18]
    |psi|^2 = 0.984
==== e(  13) =    -3.12153 eV ==== 
     psi = 0.452*[#   5]+0.109*[#   6]+0.109*[#   7]+0.062*[#   8]+0.062*[#   9]
          +0.036*[#  13]+0.036*[#  14]+0.036*[#  17]+0.036*[#  18]+0.022*[#  10]
          +0.006*[#  11]+0.006*[#  12]+0.006*[#  15]+0.006*[#  16]
    |psi|^2 = 0.984
==== e(  14) =    -2.78856 eV ==== 
     psi = 0.200*[#  13]+0.200*[#  14]+0.200*[#  17]+0.200*[#  18]+0.048*[#   8]
          +0.048*[#   9]+0.045*[#   6]+0.045*[#   7]
    |psi|^2 = 0.985
==== e(  15) =    -2.76455 eV ==== 
     psi = 0.386*[#   5]+0.116*[#  13]+0.116*[#  14]+0.116*[#  17]+0.116*[#  18]
          +0.026*[#   8]+0.026*[#   9]+0.024*[#   6]+0.024*[#   7]+0.020*[#  12]
          +0.020*[#  16]
    |psi|^2 = 0.988
==== e(  16) =    -1.46177 eV ==== 
     psi = 0.162*[#   8]+0.162*[#   9]+0.129*[#  13]+0.129*[#  14]+0.129*[#  17]
          +0.129*[#  18]+0.072*[#   6]+0.072*[#   7]+0.002*[#  11]+0.002*[#  15]
          
    |psi|^2 = 0.989
==== e(  17) =    -1.33474 eV ==== 
     psi = 0.149*[#   8]+0.149*[#   9]+0.138*[#  13]+0.138*[#  14]+0.138*[#  17]
          +0.138*[#  18]+0.072*[#   6]+0.072*[#   7]
    |psi|^2 = 0.996
==== e(  18) =     1.98606 eV ==== 
     psi = 0.348*[#  10]+0.046*[#  11]+0.046*[#  15]+0.043*[#  12]+0.043*[#  16]
          +0.004*[#  13]+0.004*[#  14]+0.004*[#  17]+0.004*[#  18]
    |psi|^2 = 0.543
==== e(  19) =     2.75856 eV ==== 
 
    |psi|^2 = 0.002
==== e(  20) =     2.81685 eV ==== 
     psi = 0.002*[#  13]+0.002*[#  14]+0.002*[#  17]+0.002*[#  18]
    |psi|^2 = 0.012

 k =   0.0000000000  0.1443375673  0.0000000000
==== e(   1) =  -104.63490 eV ==== 
     psi = 0.995*[#   1]+0.002*[#  12]+0.002*[#  16]
    |psi|^2 = 1.000
==== e(   2) =   -65.02903 eV ==== 
     psi = 0.999*[#   2]
    |psi|^2 = 1.000
==== e(   3) =   -65.02766 eV ==== 
     psi = 0.500*[#   3]+0.500*[#   4]
    |psi|^2 = 1.000
==== e(   4) =   -65.02761 eV ==== 
     psi = 0.500*[#   3]+0.500*[#   4]
    |psi|^2 = 1.000
==== e(   5) =   -15.63521 eV ==== 
     psi = 0.377*[#  11]+0.377*[#  15]+0.231*[#  10]+0.004*[#  12]+0.004*[#  16]
          +0.001*[#  13]+0.001*[#  14]+0.001*[#  17]+0.001*[#  18]
    |psi|^2 = 1.000
==== e(   6) =   -14.76503 eV ==== 
     psi = 0.492*[#  11]+0.492*[#  15]+0.002*[#  12]+0.002*[#  16]+0.001*[#  13]
          +0.001*[#  14]+0.001*[#  17]+0.001*[#  18]+0.001*[#   6]+0.001*[#   7]
          
    |psi|^2 = 0.998
==== e(   7) =    -6.62276 eV ==== 
     psi = 0.385*[#  12]+0.385*[#  16]+0.085*[#  10]+0.059*[#   5]+0.036*[#  11]
          +0.036*[#  15]+0.002*[#   1]+0.001*[#  13]+0.001*[#  14]+0.001*[#  17]
          +0.001*[#  18]
    |psi|^2 = 0.995
==== e(   8) =    -5.18401 eV ==== 
     psi = 0.143*[#   8]+0.143*[#   9]+0.120*[#  13]+0.120*[#  14]+0.120*[#  17]
          +0.120*[#  18]+0.057*[#   6]+0.057*[#   7]+0.055*[#  12]+0.055*[#  16]
          
    |psi|^2 = 0.990
==== e(   9) =    -4.82950 eV ==== 
     psi = 0.162*[#   8]+0.162*[#   9]+0.117*[#  13]+0.117*[#  14]+0.117*[#  17]
          +0.117*[#  18]+0.099*[#   6]+0.099*[#   7]
    |psi|^2 = 0.991
==== e(  10) =    -3.96483 eV ==== 
     psi = 0.153*[#  13]+0.153*[#  14]+0.153*[#  17]+0.153*[#  18]+0.099*[#   6]
          +0.099*[#   7]+0.096*[#   5]+0.030*[#  10]+0.011*[#  11]+0.011*[#  15]
          +0.008*[#   8]+0.008*[#   9]+0.004*[#  12]+0.004*[#  16]
    |psi|^2 = 0.982
==== e(  11) =    -3.53917 eV ==== 
     psi = 0.433*[#  12]+0.433*[#  16]+0.026*[#  13]+0.026*[#  14]+0.026*[#  17]
          +0.026*[#  18]+0.006*[#   8]+0.006*[#   9]+0.002*[#   6]+0.002*[#   7]
          
    |psi|^2 = 0.988
==== e(  12) =    -3.53544 eV ==== 
     psi = 0.218*[#   6]+0.218*[#   7]+0.097*[#  13]+0.097*[#  14]+0.097*[#  17]
          +0.097*[#  18]+0.080*[#   8]+0.080*[#   9]
    |psi|^2 = 0.983
==== e(  13) =    -3.17021 eV ==== 
     psi = 0.286*[#   5]+0.205*[#   6]+0.205*[#   7]+0.108*[#   8]+0.108*[#   9]
          +0.017*[#  10]+0.009*[#  13]+0.009*[#  14]+0.009*[#  17]+0.009*[#  18]
          +0.004*[#  11]+0.004*[#  15]+0.003*[#  12]+0.003*[#  16]
    |psi|^2 = 0.983
==== e(  14) =    -2.73854 eV ==== 
     psi = 0.142*[#  13]+0.142*[#  14]+0.142*[#  17]+0.142*[#  18]+0.126*[#   8]
          +0.126*[#   9]+0.083*[#   6]+0.083*[#   7]
    |psi|^2 = 0.986
==== e(  15) =    -2.73028 eV ==== 
     psi = 0.536*[#   5]+0.055*[#  13]+0.055*[#  14]+0.055*[#  17]+0.055*[#  18]
          +0.053*[#   8]+0.053*[#   9]+0.034*[#   6]+0.034*[#   7]+0.030*[#  12]
          +0.030*[#  16]
    |psi|^2 = 0.990
==== e(  16) =    -1.79478 eV ==== 
     psi = 0.174*[#   8]+0.174*[#   9]+0.104*[#  13]+0.104*[#  14]+0.104*[#  17]
          +0.104*[#  18]+0.093*[#   6]+0.093*[#   7]+0.009*[#  12]+0.009*[#  16]
          +0.005*[#  11]+0.005*[#  15]+0.003*[#   5]
    |psi|^2 = 0.983
==== e(  17) =    -1.40210 eV ==== 
     psi = 0.139*[#  13]+0.139*[#  14]+0.139*[#  17]+0.139*[#  18]+0.126*[#   8]
          +0.126*[#   9]+0.093*[#   6]+0.093*[#   7]
    |psi|^2 = 0.995
==== e(  18) =     2.30796 eV ==== 
     psi = 0.283*[#  10]+0.032*[#  12]+0.032*[#  16]+0.031*[#  11]+0.031*[#  15]
          +0.008*[#  13]+0.008*[#  14]+0.008*[#  17]+0.008*[#  18]
    |psi|^2 = 0.444
==== e(  19) =     2.86647 eV ==== 
     psi = 0.002*[#  10]
    |psi|^2 = 0.006
==== e(  20) =     3.08549 eV ==== 
     psi = 0.091*[#  10]+0.010*[#  11]+0.010*[#  12]+0.010*[#  15]+0.010*[#  16]
          +0.008*[#  13]+0.008*[#  14]+0.008*[#  17]+0.008*[#  18]+0.003*[#   5]
          
    |psi|^2 = 0.164

 k =   0.0000000000  0.2165063509  0.0000000000
==== e(   1) =  -104.63489 eV ==== 
     psi = 0.995*[#   1]+0.001*[#  12]+0.001*[#  16]
    |psi|^2 = 1.000
==== e(   2) =   -65.02902 eV ==== 
     psi = 0.999*[#   2]
    |psi|^2 = 1.000
==== e(   3) =   -65.02775 eV ==== 
     psi = 0.500*[#   3]+0.500*[#   4]
    |psi|^2 = 1.000
==== e(   4) =   -65.02763 eV ==== 
     psi = 0.500*[#   3]+0.500*[#   4]
    |psi|^2 = 1.000
==== e(   5) =   -15.49538 eV ==== 
     psi = 0.389*[#  11]+0.389*[#  15]+0.200*[#  10]+0.005*[#  12]+0.005*[#  16]
          +0.003*[#  13]+0.003*[#  14]+0.003*[#  17]+0.003*[#  18]
    |psi|^2 = 1.000
==== e(   6) =   -14.69217 eV ==== 
     psi = 0.490*[#  11]+0.490*[#  15]+0.002*[#   6]+0.002*[#   7]+0.002*[#  13]
          +0.002*[#  14]+0.002*[#  17]+0.002*[#  18]+0.002*[#  12]+0.002*[#  16]
          +0.001*[#   8]+0.001*[#   9]
    |psi|^2 = 0.998
==== e(   7) =    -6.50673 eV ==== 
     psi = 0.368*[#  12]+0.368*[#  16]+0.101*[#  10]+0.048*[#   5]+0.039*[#  11]
          +0.039*[#  15]+0.007*[#  13]+0.007*[#  14]+0.007*[#  17]+0.007*[#  18]
          +0.002*[#   1]
    |psi|^2 = 0.995
==== e(   8) =    -5.51316 eV ==== 
     psi = 0.140*[#  13]+0.140*[#  14]+0.140*[#  17]+0.140*[#  18]+0.112*[#   8]
          +0.112*[#   9]+0.068*[#  12]+0.068*[#  16]+0.030*[#   6]+0.030*[#   7]
          +0.002*[#  10]+0.002*[#  11]+0.002*[#  15]+0.001*[#   5]
    |psi|^2 = 0.986
==== e(   9) =    -4.82350 eV ==== 
     psi = 0.139*[#   8]+0.139*[#   9]+0.123*[#  13]+0.123*[#  14]+0.123*[#  17]
          +0.123*[#  18]+0.110*[#   6]+0.110*[#   7]
    |psi|^2 = 0.990
==== e(  10) =    -4.59982 eV ==== 
     psi = 0.159*[#  13]+0.159*[#  14]+0.159*[#  17]+0.159*[#  18]+0.079*[#   5]
          +0.079*[#   6]+0.079*[#   7]+0.035*[#  10]+0.025*[#  12]+0.025*[#  16]
          +0.013*[#  11]+0.013*[#  15]
    |psi|^2 = 0.984
==== e(  11) =    -3.75322 eV ==== 
     psi = 0.170*[#   6]+0.170*[#   7]+0.134*[#  13]+0.134*[#  14]+0.134*[#  17]
          +0.134*[#  18]+0.053*[#   8]+0.053*[#   9]
    |psi|^2 = 0.982
==== e(  12) =    -3.50461 eV ==== 
     psi = 0.386*[#  12]+0.386*[#  16]+0.052*[#  13]+0.052*[#  14]+0.052*[#  17]
          +0.052*[#  18]
    |psi|^2 = 0.985
==== e(  13) =    -3.19728 eV ==== 
     psi = 0.259*[#   5]+0.223*[#   6]+0.223*[#   7]+0.114*[#   8]+0.114*[#   9]
          +0.016*[#  10]+0.004*[#  12]+0.004*[#  16]+0.004*[#  11]+0.004*[#  13]
          +0.004*[#  14]+0.004*[#  15]+0.004*[#  17]+0.004*[#  18]
    |psi|^2 = 0.981
==== e(  14) =    -2.74213 eV ==== 
     psi = 0.209*[#   8]+0.209*[#   9]+0.098*[#  13]+0.098*[#  14]+0.098*[#  17]
          +0.098*[#  18]+0.089*[#   6]+0.089*[#   7]
    |psi|^2 = 0.987
==== e(  15) =    -2.73547 eV ==== 
     psi = 0.579*[#   5]+0.089*[#   8]+0.089*[#   9]+0.031*[#  12]+0.031*[#  16]
          +0.029*[#  13]+0.029*[#  14]+0.029*[#  17]+0.029*[#  18]+0.028*[#   6]
          +0.028*[#   7]
    |psi|^2 = 0.992
==== e(  16) =    -2.05242 eV ==== 
     psi = 0.173*[#   8]+0.173*[#   9]+0.128*[#   6]+0.128*[#   7]+0.064*[#  13]
          +0.064*[#  14]+0.064*[#  17]+0.064*[#  18]+0.046*[#  12]+0.046*[#  16]
          +0.016*[#   5]+0.009*[#  11]+0.009*[#  15]
    |psi|^2 = 0.986
==== e(  17) =    -1.46886 eV ==== 
     psi = 0.139*[#  13]+0.139*[#  14]+0.139*[#  17]+0.139*[#  18]+0.126*[#   6]
          +0.126*[#   7]+0.093*[#   8]+0.093*[#   9]
    |psi|^2 = 0.994
==== e(  18) =     2.60748 eV ==== 
     psi = 0.372*[#  10]+0.034*[#  12]+0.034*[#  16]+0.029*[#  11]+0.029*[#  15]
          +0.024*[#  13]+0.024*[#  14]+0.024*[#  17]+0.024*[#  18]+0.001*[#   5]
          +0.001*[#   6]+0.001*[#   7]
    |psi|^2 = 0.601
==== e(  19) =     2.71740 eV ==== 
     psi = 0.005*[#  10]+0.002*[#   5]
    |psi|^2 = 0.013
==== e(  20) =     3.06450 eV ==== 
     psi = 0.005*[#  10]+0.002*[#   8]+0.002*[#   9]
    |psi|^2 = 0.015

 k =   0.0000000000  0.2886751346  0.0000000000
==== e(   1) =  -104.63489 eV ==== 
     psi = 0.995*[#   1]+0.001*[#  12]+0.001*[#  16]
    |psi|^2 = 1.000
==== e(   2) =   -65.02900 eV ==== 
     psi = 0.999*[#   2]
    |psi|^2 = 1.000
==== e(   3) =   -65.02785 eV ==== 
     psi = 0.499*[#   3]+0.499*[#   4]
    |psi|^2 = 1.000
==== e(   4) =   -65.02765 eV ==== 
     psi = 0.500*[#   3]+0.500*[#   4]
    |psi|^2 = 1.000
==== e(   5) =   -15.31517 eV ==== 
     psi = 0.407*[#  11]+0.407*[#  15]+0.160*[#  10]+0.005*[#  12]+0.005*[#  16]
          +0.004*[#  13]+0.004*[#  14]+0.004*[#  17]+0.004*[#  18]
    |psi|^2 = 0.999
==== e(   6) =   -14.60732 eV ==== 
     psi = 0.488*[#  11]+0.488*[#  15]+0.004*[#   6]+0.004*[#   7]+0.002*[#  13]
          +0.002*[#  14]+0.002*[#  17]+0.002*[#  18]+0.002*[#   8]+0.002*[#   9]
          +0.001*[#  12]+0.001*[#  16]
    |psi|^2 = 0.998
==== e(   7) =    -6.44610 eV ==== 
     psi = 0.289*[#  12]+0.289*[#  16]+0.137*[#  10]+0.044*[#  11]+0.044*[#  15]
          +0.038*[#  13]+0.038*[#  14]+0.038*[#  17]+0.038*[#  18]+0.024*[#   5]
          +0.004*[#   8]+0.004*[#   9]+0.002*[#   1]+0.002*[#   6]+0.002*[#   7]
          
    |psi|^2 = 0.994
==== e(   8) =    -5.89075 eV ==== 
     psi = 0.158*[#  13]+0.158*[#  14]+0.158*[#  17]+0.158*[#  18]+0.089*[#  12]
          +0.089*[#  16]+0.070*[#   8]+0.070*[#   9]+0.010*[#   6]+0.010*[#   7]
          +0.009*[#   5]+0.002*[#  10]+0.001*[#  11]+0.001*[#  15]
    |psi|^2 = 0.983
==== e(   9) =    -5.09773 eV ==== 
     psi = 0.137*[#  13]+0.137*[#  14]+0.137*[#  17]+0.137*[#  18]+0.087*[#  12]
          +0.087*[#  16]+0.078*[#   5]+0.070*[#   6]+0.070*[#   7]+0.018*[#  10]
          +0.009*[#   8]+0.009*[#   9]+0.006*[#  11]+0.006*[#  15]
    |psi|^2 = 0.988
==== e(  10) =    -4.81692 eV ==== 
     psi = 0.129*[#  13]+0.129*[#  14]+0.129*[#  17]+0.129*[#  18]+0.126*[#   6]
          +0.126*[#   7]+0.111*[#   8]+0.111*[#   9]
    |psi|^2 = 0.990
==== e(  11) =    -3.96458 eV ==== 
     psi = 0.163*[#  13]+0.163*[#  14]+0.163*[#  17]+0.163*[#  18]+0.130*[#   6]
          +0.130*[#   7]+0.035*[#   8]+0.035*[#   9]
    |psi|^2 = 0.981
==== e(  12) =    -3.66877 eV ==== 
     psi = 0.320*[#  12]+0.320*[#  16]+0.068*[#  13]+0.068*[#  14]+0.068*[#  17]
          +0.068*[#  18]+0.031*[#   8]+0.031*[#   9]+0.005*[#   6]+0.005*[#   7]
          +0.001*[#  10]+0.001*[#   5]
    |psi|^2 = 0.986
==== e(  13) =    -3.22197 eV ==== 
     psi = 0.259*[#   5]+0.231*[#   6]+0.231*[#   7]+0.106*[#   8]+0.106*[#   9]
          +0.017*[#  10]+0.007*[#  12]+0.007*[#  16]+0.003*[#  11]+0.003*[#  15]
          +0.002*[#  13]+0.002*[#  14]+0.002*[#  17]+0.002*[#  18]
    |psi|^2 = 0.978
==== e(  14) =    -2.80091 eV ==== 
     psi = 0.289*[#   8]+0.289*[#   9]+0.078*[#   6]+0.078*[#   7]+0.063*[#  13]
          +0.063*[#  14]+0.063*[#  17]+0.063*[#  18]
    |psi|^2 = 0.988
==== e(  15) =    -2.76642 eV ==== 
     psi = 0.580*[#   5]+0.118*[#   8]+0.118*[#   9]+0.034*[#  12]+0.034*[#  16]
          +0.023*[#   6]+0.023*[#   7]+0.015*[#  13]+0.015*[#  14]+0.015*[#  17]
          +0.015*[#  18]
    |psi|^2 = 0.993
==== e(  16) =    -2.07799 eV ==== 
     psi = 0.149*[#   8]+0.149*[#   9]+0.147*[#   6]+0.147*[#   7]+0.110*[#  12]
          +0.110*[#  16]+0.036*[#   5]+0.031*[#  13]+0.031*[#  14]+0.031*[#  17]
          +0.031*[#  18]+0.009*[#  11]+0.009*[#  15]
    |psi|^2 = 0.989
==== e(  17) =    -1.51003 eV ==== 
     psi = 0.162*[#   6]+0.162*[#   7]+0.137*[#  13]+0.137*[#  14]+0.137*[#  17]
          +0.137*[#  18]+0.060*[#   8]+0.060*[#   9]
    |psi|^2 = 0.995
==== e(  18) =     2.13388 eV ==== 
     psi = 0.284*[#  10]+0.027*[#  13]+0.027*[#  14]+0.027*[#  17]+0.027*[#  18]
          +0.019*[#  12]+0.019*[#  16]+0.015*[#  11]+0.015*[#  15]+0.002*[#   5]
          +0.002*[#   8]+0.002*[#   9]
    |psi|^2 = 0.466
==== e(  19) =     2.99501 eV ==== 
     psi = 0.132*[#  10]+0.012*[#  12]+0.012*[#  16]+0.009*[#  11]+0.009*[#  15]
          +0.004*[#  13]+0.004*[#  14]+0.004*[#  17]+0.004*[#  18]+0.001*[#   6]
          +0.001*[#   7]+0.001*[#   8]+0.001*[#   9]
    |psi|^2 = 0.196
==== e(  20) =     3.28641 eV ==== 
     psi = 0.002*[#   8]+0.002*[#   9]+0.002*[#  10]+0.001*[#   5]
    |psi|^2 = 0.011

 k =   0.0000000000  0.3608439182  0.0000000000
==== e(   1) =  -104.63489 eV ==== 
     psi = 0.995*[#   1]
    |psi|^2 = 1.000
==== e(   2) =   -65.02898 eV ==== 
     psi = 0.999*[#   2]
    |psi|^2 = 1.000
==== e(   3) =   -65.02796 eV ==== 
     psi = 0.499*[#   3]+0.499*[#   4]
    |psi|^2 = 1.000
==== e(   4) =   -65.02768 eV ==== 
     psi = 0.500*[#   3]+0.500*[#   4]
    |psi|^2 = 1.000
==== e(   5) =   -15.11195 eV ==== 
     psi = 0.428*[#  11]+0.428*[#  15]+0.115*[#  10]+0.004*[#  12]+0.004*[#  16]
          +0.004*[#  13]+0.004*[#  14]+0.004*[#  17]+0.004*[#  18]
    |psi|^2 = 0.999
==== e(   6) =   -14.52774 eV ==== 
     psi = 0.488*[#  11]+0.488*[#  15]+0.005*[#   6]+0.005*[#   7]+0.002*[#   8]
          +0.002*[#   9]+0.002*[#  10]+0.001*[#  13]+0.001*[#  14]+0.001*[#  17]
          +0.001*[#  18]
    |psi|^2 = 0.999
==== e(   7) =    -6.66782 eV ==== 
     psi = 0.167*[#  10]+0.124*[#  13]+0.124*[#  14]+0.124*[#  17]+0.124*[#  18]
          +0.107*[#  12]+0.107*[#  16]+0.036*[#  11]+0.036*[#  15]+0.014*[#   8]
          +0.014*[#   9]+0.005*[#   6]+0.005*[#   7]+0.002*[#   1]+0.001*[#   5]
          
    |psi|^2 = 0.991
==== e(   8) =    -6.16662 eV ==== 
     psi = 0.150*[#  12]+0.150*[#  16]+0.144*[#  13]+0.144*[#  14]+0.144*[#  17]
          +0.144*[#  18]+0.029*[#   8]+0.029*[#   9]+0.010*[#   5]+0.009*[#   6]
          +0.009*[#   7]+0.007*[#  11]+0.007*[#  15]+0.006*[#  10]
    |psi|^2 = 0.985
==== e(   9) =    -5.28138 eV ==== 
     psi = 0.208*[#  12]+0.208*[#  16]+0.088*[#  13]+0.088*[#  14]+0.088*[#  17]
          +0.088*[#  18]+0.084*[#   5]+0.049*[#   6]+0.049*[#   7]+0.018*[#   8]
          +0.018*[#   9]+0.001*[#  10]
    |psi|^2 = 0.989
==== e(  10) =    -4.81039 eV ==== 
     psi = 0.149*[#   6]+0.149*[#   7]+0.133*[#  13]+0.133*[#  14]+0.133*[#  17]
          +0.133*[#  18]+0.081*[#   8]+0.081*[#   9]
    |psi|^2 = 0.991
==== e(  11) =    -4.14961 eV ==== 
     psi = 0.189*[#  13]+0.189*[#  14]+0.189*[#  17]+0.189*[#  18]+0.091*[#   6]
          +0.091*[#   7]+0.021*[#   8]+0.021*[#   9]
    |psi|^2 = 0.980
==== e(  12) =    -3.94635 eV ==== 
     psi = 0.287*[#  12]+0.287*[#  16]+0.067*[#   8]+0.067*[#   9]+0.061*[#  13]
          +0.061*[#  14]+0.061*[#  17]+0.061*[#  18]+0.015*[#   6]+0.015*[#   7]
          +0.003*[#  10]+0.002*[#  11]+0.002*[#  15]+0.001*[#   5]
    |psi|^2 = 0.989
==== e(  13) =    -3.24418 eV ==== 
     psi = 0.276*[#   5]+0.237*[#   6]+0.237*[#   7]+0.091*[#   8]+0.091*[#   9]
          +0.017*[#  10]+0.008*[#  12]+0.008*[#  16]+0.003*[#  11]+0.003*[#  15]
          +0.001*[#  13]+0.001*[#  14]+0.001*[#  17]+0.001*[#  18]
    |psi|^2 = 0.976
==== e(  14) =    -2.88675 eV ==== 
     psi = 0.356*[#   8]+0.356*[#   9]+0.065*[#   6]+0.065*[#   7]+0.037*[#  13]
          +0.037*[#  14]+0.037*[#  17]+0.037*[#  18]
    |psi|^2 = 0.990
==== e(  15) =    -2.81323 eV ==== 
     psi = 0.571*[#   5]+0.134*[#   8]+0.134*[#   9]+0.034*[#  12]+0.034*[#  16]
          +0.026*[#   6]+0.026*[#   7]+0.007*[#  13]+0.007*[#  14]+0.007*[#  17]
          +0.007*[#  18]+0.004*[#  10]
    |psi|^2 = 0.993
==== e(  16) =    -1.95314 eV ==== 
     psi = 0.152*[#  12]+0.152*[#  16]+0.146*[#   6]+0.146*[#   7]+0.131*[#   8]
          +0.131*[#   9]+0.045*[#   5]+0.017*[#  13]+0.017*[#  14]+0.017*[#  17]
          +0.017*[#  18]+0.008*[#  11]+0.008*[#  15]
    |psi|^2 = 0.990
==== e(  17) =    -1.52618 eV ==== 
     psi = 0.192*[#   6]+0.192*[#   7]+0.134*[#  13]+0.134*[#  14]+0.134*[#  17]
          +0.134*[#  18]+0.038*[#   8]+0.038*[#   9]
    |psi|^2 = 0.995
==== e(  18) =     1.67596 eV ==== 
     psi = 0.367*[#  10]+0.034*[#  13]+0.034*[#  14]+0.034*[#  17]+0.034*[#  18]
          +0.018*[#  12]+0.018*[#  16]+0.013*[#  11]+0.013*[#  15]+0.004*[#   8]
          +0.004*[#   9]+0.001*[#   1]
    |psi|^2 = 0.574
==== e(  19) =     3.14434 eV ==== 
     psi = 0.100*[#  10]+0.009*[#  12]+0.009*[#  16]+0.005*[#  11]+0.005*[#  15]
          +0.003*[#   8]+0.003*[#   9]+0.003*[#  13]+0.003*[#  14]+0.003*[#  17]
          +0.003*[#  18]+0.002*[#   6]+0.002*[#   7]
    |psi|^2 = 0.151
==== e(  20) =     3.55227 eV ==== 
     psi = 0.019*[#  10]+0.002*[#   8]+0.002*[#   9]+0.002*[#  12]+0.002*[#  16]
          +0.001*[#   5]+0.001*[#  13]+0.001*[#  14]+0.001*[#  17]+0.001*[#  18]
          
    |psi|^2 = 0.036

 k =   0.0000000000  0.4330127019  0.0000000000
==== e(   1) =  -104.63488 eV ==== 
     psi = 0.995*[#   1]
    |psi|^2 = 1.000
==== e(   2) =   -65.02896 eV ==== 
     psi = 0.999*[#   2]
    |psi|^2 = 1.000
==== e(   3) =   -65.02804 eV ==== 
     psi = 0.499*[#   3]+0.499*[#   4]
    |psi|^2 = 1.000
==== e(   4) =   -65.02770 eV ==== 
     psi = 0.500*[#   3]+0.500*[#   4]
    |psi|^2 = 1.000
==== e(   5) =   -14.91016 eV ==== 
     psi = 0.453*[#  11]+0.453*[#  15]+0.068*[#  10]+0.004*[#  12]+0.004*[#  16]
          +0.004*[#  13]+0.004*[#  14]+0.004*[#  17]+0.004*[#  18]
    |psi|^2 = 0.999
==== e(   6) =   -14.47346 eV ==== 
     psi = 0.486*[#  11]+0.486*[#  15]+0.006*[#  10]+0.006*[#   6]+0.006*[#   7]
          +0.003*[#   8]+0.003*[#   9]
    |psi|^2 = 0.999
==== e(   7) =    -7.06431 eV ==== 
     psi = 0.179*[#  10]+0.159*[#  13]+0.159*[#  14]+0.159*[#  17]+0.159*[#  18]
          +0.046*[#  12]+0.046*[#  16]+0.021*[#  11]+0.021*[#  15]+0.012*[#   8]
          +0.012*[#   9]+0.009*[#   6]+0.009*[#   7]+0.002*[#   1]
    |psi|^2 = 0.992
==== e(   8) =    -6.35119 eV ==== 
     psi = 0.170*[#  13]+0.170*[#  14]+0.170*[#  17]+0.170*[#  18]+0.119*[#  12]
          +0.119*[#  16]+0.012*[#   8]+0.012*[#   9]+0.009*[#  10]+0.008*[#  11]
          +0.008*[#  15]+0.007*[#   6]+0.007*[#   7]+0.002*[#   5]
    |psi|^2 = 0.986
==== e(   9) =    -5.17813 eV ==== 
     psi = 0.297*[#  12]+0.297*[#  16]+0.078*[#   5]+0.046*[#  13]+0.046*[#  14]
          +0.046*[#  17]+0.046*[#  18]+0.036*[#   6]+0.036*[#   7]+0.029*[#   8]
          +0.029*[#   9]+0.001*[#  11]+0.001*[#  15]
    |psi|^2 = 0.989
==== e(  10) =    -4.80397 eV ==== 
     psi = 0.178*[#   6]+0.178*[#   7]+0.132*[#  13]+0.132*[#  14]+0.132*[#  17]
          +0.132*[#  18]+0.055*[#   8]+0.055*[#   9]
    |psi|^2 = 0.992
==== e(  11) =    -4.29430 eV ==== 
     psi = 0.213*[#  13]+0.213*[#  14]+0.213*[#  17]+0.213*[#  18]+0.052*[#   6]
          +0.052*[#   7]+0.010*[#   8]+0.010*[#   9]
    |psi|^2 = 0.977
==== e(  12) =    -4.22053 eV ==== 
     psi = 0.294*[#  12]+0.294*[#  16]+0.079*[#   8]+0.079*[#   9]+0.048*[#  13]
          +0.048*[#  14]+0.048*[#  17]+0.048*[#  18]+0.021*[#   6]+0.021*[#   7]
          +0.004*[#  10]+0.003*[#   5]+0.002*[#  11]+0.002*[#  15]
    |psi|^2 = 0.990
==== e(  13) =    -3.26290 eV ==== 
     psi = 0.305*[#   5]+0.239*[#   6]+0.239*[#   7]+0.075*[#   8]+0.075*[#   9]
          +0.016*[#  10]+0.009*[#  12]+0.009*[#  16]+0.003*[#  11]+0.003*[#  15]
          
    |psi|^2 = 0.975
==== e(  14) =    -2.96805 eV ==== 
     psi = 0.407*[#   8]+0.407*[#   9]+0.055*[#   6]+0.055*[#   7]+0.017*[#  13]
          +0.017*[#  14]+0.017*[#  17]+0.017*[#  18]
    |psi|^2 = 0.993
==== e(  15) =    -2.87799 eV ==== 
     psi = 0.548*[#   5]+0.155*[#   8]+0.155*[#   9]+0.031*[#   6]+0.031*[#   7]
          +0.024*[#  12]+0.024*[#  16]+0.011*[#  10]+0.003*[#  13]+0.003*[#  14]
          +0.003*[#  17]+0.003*[#  18]
    |psi|^2 = 0.993
==== e(  16) =    -1.80713 eV ==== 
     psi = 0.168*[#  12]+0.168*[#  16]+0.144*[#   6]+0.144*[#   7]+0.121*[#   8]
          +0.121*[#   9]+0.052*[#   5]+0.014*[#  13]+0.014*[#  14]+0.014*[#  17]
          +0.014*[#  18]+0.007*[#  11]+0.007*[#  15]+0.002*[#  10]
    |psi|^2 = 0.992
==== e(  17) =    -1.52873 eV ==== 
     psi = 0.213*[#   6]+0.213*[#   7]+0.130*[#  13]+0.130*[#  14]+0.130*[#  17]
          +0.130*[#  18]+0.025*[#   8]+0.025*[#   9]
    |psi|^2 = 0.996
==== e(  18) =     1.33222 eV ==== 
     psi = 0.460*[#  10]+0.039*[#  13]+0.039*[#  14]+0.039*[#  17]+0.039*[#  18]
          +0.018*[#  12]+0.018*[#  16]+0.011*[#  11]+0.011*[#  15]+0.007*[#   8]
          +0.007*[#   9]+0.002*[#   1]
    |psi|^2 = 0.692
==== e(  19) =     3.13684 eV ==== 
     psi = 0.060*[#  10]+0.007*[#  12]+0.007*[#  16]+0.002*[#  11]+0.002*[#  15]
          +0.002*[#   8]+0.002*[#   9]+0.002*[#   6]+0.002*[#   7]+0.001*[#  13]
          +0.001*[#  14]+0.001*[#  17]+0.001*[#  18]
    |psi|^2 = 0.094
==== e(  20) =     3.59568 eV ==== 
     psi = 0.003*[#   8]+0.003*[#   9]+0.003*[#  10]+0.002*[#   5]+0.002*[#  13]
          +0.002*[#  14]+0.002*[#  17]+0.002*[#  18]
    |psi|^2 = 0.018

 k =   0.0000000000  0.5051814855  0.0000000000
==== e(   1) =  -104.63488 eV ==== 
     psi = 0.995*[#   1]
    |psi|^2 = 1.000
==== e(   2) =   -65.02895 eV ==== 
     psi = 0.998*[#   2]
    |psi|^2 = 1.000
==== e(   3) =   -65.02810 eV ==== 
     psi = 0.499*[#   3]+0.499*[#   4]
    |psi|^2 = 1.000
==== e(   4) =   -65.02771 eV ==== 
     psi = 0.500*[#   3]+0.500*[#   4]
    |psi|^2 = 1.000
==== e(   5) =   -14.74341 eV ==== 
     psi = 0.477*[#  11]+0.477*[#  15]+0.026*[#  10]+0.004*[#  12]+0.004*[#  16]
          +0.002*[#  13]+0.002*[#  14]+0.002*[#  17]+0.002*[#  18]
    |psi|^2 = 0.998
==== e(   6) =   -14.45944 eV ==== 
     psi = 0.479*[#  11]+0.479*[#  15]+0.018*[#  10]+0.007*[#   6]+0.007*[#   7]
          +0.004*[#   8]+0.004*[#   9]
    |psi|^2 = 0.999
==== e(   7) =    -7.35997 eV ==== 
     psi = 0.194*[#  10]+0.168*[#  13]+0.168*[#  14]+0.168*[#  17]+0.168*[#  18]
          +0.032*[#  12]+0.032*[#  16]+0.011*[#   6]+0.011*[#   7]+0.011*[#  11]
          +0.011*[#  15]+0.008*[#   8]+0.008*[#   9]+0.002*[#   1]+0.001*[#   5]
          
    |psi|^2 = 0.994
==== e(   8) =    -6.49373 eV ==== 
     psi = 0.192*[#  13]+0.192*[#  14]+0.192*[#  17]+0.192*[#  18]+0.096*[#  12]
          +0.096*[#  16]+0.006*[#  11]+0.006*[#  15]+0.003*[#   8]+0.003*[#   9]
          +0.003*[#  10]+0.002*[#   6]+0.002*[#   7]
    |psi|^2 = 0.986
==== e(   9) =    -4.96667 eV ==== 
     psi = 0.313*[#  12]+0.313*[#  16]+0.064*[#   5]+0.056*[#   8]+0.056*[#   9]
          +0.039*[#   6]+0.039*[#   7]+0.026*[#  13]+0.026*[#  14]+0.026*[#  17]
          +0.026*[#  18]+0.002*[#  11]+0.002*[#  15]
    |psi|^2 = 0.989
==== e(  10) =    -4.79821 eV ==== 
     psi = 0.208*[#   6]+0.208*[#   7]+0.126*[#  13]+0.126*[#  14]+0.126*[#  17]
          +0.126*[#  18]+0.037*[#   8]+0.037*[#   9]
    |psi|^2 = 0.994
==== e(  11) =    -4.45422 eV ==== 
     psi = 0.332*[#  12]+0.332*[#  16]+0.057*[#   8]+0.057*[#   9]+0.041*[#  13]
          +0.041*[#  14]+0.041*[#  17]+0.041*[#  18]+0.018*[#   6]+0.018*[#   7]
          +0.005*[#   5]+0.002*[#  10]+0.002*[#  11]+0.002*[#  15]
    |psi|^2 = 0.988
==== e(  12) =    -4.38764 eV ==== 
     psi = 0.234*[#  13]+0.234*[#  14]+0.234*[#  17]+0.234*[#  18]+0.016*[#   6]
          +0.016*[#   7]+0.003*[#   8]+0.003*[#   9]
    |psi|^2 = 0.975
==== e(  13) =    -3.27664 eV ==== 
     psi = 0.343*[#   5]+0.237*[#   6]+0.237*[#   7]+0.059*[#   8]+0.059*[#   9]
          +0.013*[#  10]+0.009*[#  12]+0.009*[#  16]+0.003*[#  11]+0.003*[#  15]
          
    |psi|^2 = 0.974
==== e(  14) =    -3.02363 eV ==== 
     psi = 0.438*[#   8]+0.438*[#   9]+0.049*[#   6]+0.049*[#   7]+0.005*[#  13]
          +0.005*[#  14]+0.005*[#  17]+0.005*[#  18]
    |psi|^2 = 0.994
==== e(  15) =    -2.94325 eV ==== 
     psi = 0.514*[#   5]+0.179*[#   8]+0.179*[#   9]+0.036*[#   6]+0.036*[#   7]
          +0.022*[#  10]+0.009*[#  12]+0.009*[#  16]+0.002*[#  13]+0.002*[#  14]
          +0.002*[#  17]+0.002*[#  18]
    |psi|^2 = 0.993
==== e(  16) =    -1.70618 eV ==== 
     psi = 0.170*[#  12]+0.170*[#  16]+0.144*[#   6]+0.144*[#   7]+0.115*[#   8]
          +0.115*[#   9]+0.059*[#   5]+0.015*[#  13]+0.015*[#  14]+0.015*[#  17]
          +0.015*[#  18]+0.006*[#  11]+0.006*[#  15]+0.005*[#  10]
    |psi|^2 = 0.994
==== e(  17) =    -1.52708 eV ==== 
     psi = 0.224*[#   6]+0.224*[#   7]+0.128*[#  13]+0.128*[#  14]+0.128*[#  17]
          +0.128*[#  18]+0.018*[#   8]+0.018*[#   9]
    |psi|^2 = 0.996
==== e(  18) =     1.12919 eV ==== 
     psi = 0.532*[#  10]+0.042*[#  13]+0.042*[#  14]+0.042*[#  17]+0.042*[#  18]
          +0.019*[#  12]+0.019*[#  16]+0.011*[#   8]+0.011*[#   9]+0.010*[#  11]
          +0.010*[#  15]+0.002*[#   1]
    |psi|^2 = 0.782
==== e(  19) =     3.06184 eV ==== 
     psi = 0.017*[#  10]+0.005*[#  12]+0.005*[#  16]
    |psi|^2 = 0.034
==== e(  20) =     3.64476 eV ==== 
     psi = 0.004*[#   5]+0.003*[#   8]+0.003*[#   9]+0.002*[#   6]+0.002*[#   7]
          +0.001*[#  13]+0.001*[#  14]+0.001*[#  17]+0.001*[#  18]
    |psi|^2 = 0.019

 k =   0.0000000000 -0.5773502692  0.0000000000
==== e(   1) =  -104.63488 eV ==== 
     psi = 0.995*[#   1]+0.001*[#  13]+0.001*[#  14]+0.001*[#  17]+0.001*[#  18]
          
    |psi|^2 = 1.000
==== e(   2) =   -65.02895 eV ==== 
     psi = 0.998*[#   2]
    |psi|^2 = 1.000
==== e(   3) =   -65.02812 eV ==== 
     psi = 0.499*[#   3]+0.499*[#   4]
    |psi|^2 = 1.000
==== e(   4) =   -65.02772 eV ==== 
     psi = 0.500*[#   3]+0.500*[#   4]
    |psi|^2 = 1.000
==== e(   5) =   -14.66856 eV ==== 
     psi = 0.493*[#  11]+0.493*[#  15]+0.004*[#  12]+0.004*[#  16]
    |psi|^2 = 0.998
==== e(   6) =   -14.46876 eV ==== 
     psi = 0.471*[#  11]+0.471*[#  15]+0.032*[#  10]+0.007*[#   6]+0.007*[#   7]
          +0.004*[#   8]+0.004*[#   9]
    |psi|^2 = 1.000
==== e(   7) =    -7.46599 eV ==== 
     psi = 0.201*[#  10]+0.170*[#  13]+0.170*[#  14]+0.170*[#  17]+0.170*[#  18]
          +0.029*[#  12]+0.029*[#  16]+0.012*[#   6]+0.012*[#   7]+0.007*[#   8]
          +0.007*[#   9]+0.007*[#  11]+0.007*[#  15]+0.002*[#   1]+0.001*[#   5]
          
    |psi|^2 = 0.995
==== e(   8) =    -6.54706 eV ==== 
     psi = 0.199*[#  13]+0.199*[#  14]+0.199*[#  17]+0.199*[#  18]+0.089*[#  12]
          +0.089*[#  16]+0.005*[#  11]+0.005*[#  15]
    |psi|^2 = 0.986
==== e(   9) =    -4.81260 eV ==== 
     psi = 0.268*[#  12]+0.268*[#  16]+0.113*[#   8]+0.113*[#   9]+0.064*[#   5]
          +0.056*[#   6]+0.056*[#   7]+0.011*[#  13]+0.011*[#  14]+0.011*[#  17]
          +0.011*[#  18]+0.003*[#  11]+0.003*[#  15]
    |psi|^2 = 0.992
==== e(  10) =    -4.79563 eV ==== 
     psi = 0.222*[#   6]+0.222*[#   7]+0.122*[#  13]+0.122*[#  14]+0.122*[#  17]
          +0.122*[#  18]+0.031*[#   8]+0.031*[#   9]
    |psi|^2 = 0.995
==== e(  11) =    -4.60113 eV ==== 
     psi = 0.396*[#  12]+0.396*[#  16]+0.047*[#  13]+0.047*[#  14]+0.047*[#  17]
          +0.047*[#  18]+0.002*[#  11]+0.002*[#  15]
    |psi|^2 = 0.983
==== e(  12) =    -4.42024 eV ==== 
     psi = 0.243*[#  13]+0.243*[#  14]+0.243*[#  17]+0.243*[#  18]
    |psi|^2 = 0.974
==== e(  13) =    -3.28216 eV ==== 
     psi = 0.365*[#   5]+0.234*[#   6]+0.234*[#   7]+0.052*[#   8]+0.052*[#   9]
          +0.012*[#  10]+0.008*[#  12]+0.008*[#  16]+0.003*[#  11]+0.003*[#  15]
          
    |psi|^2 = 0.974
==== e(  14) =    -3.04313 eV ==== 
     psi = 0.449*[#   8]+0.449*[#   9]+0.047*[#   6]+0.047*[#   7]
    |psi|^2 = 0.995
==== e(  15) =    -2.97201 eV ==== 
     psi = 0.495*[#   5]+0.192*[#   8]+0.192*[#   9]+0.039*[#   6]+0.039*[#   7]
          +0.029*[#  10]+0.001*[#  12]+0.001*[#  16]+0.001*[#  13]+0.001*[#  14]
          +0.001*[#  17]+0.001*[#  18]
    |psi|^2 = 0.994
==== e(  16) =    -1.67170 eV ==== 
     psi = 0.169*[#  12]+0.169*[#  16]+0.144*[#   6]+0.144*[#   7]+0.113*[#   8]
          +0.113*[#   9]+0.062*[#   5]+0.015*[#  13]+0.015*[#  14]+0.015*[#  17]
          +0.015*[#  18]+0.007*[#  10]+0.006*[#  11]+0.006*[#  15]
    |psi|^2 = 0.995
==== e(  17) =    -1.52606 eV ==== 
     psi = 0.228*[#   6]+0.228*[#   7]+0.127*[#  13]+0.127*[#  14]+0.127*[#  17]
          +0.127*[#  18]+0.017*[#   8]+0.017*[#   9]
    |psi|^2 = 0.996
==== e(  18) =     1.06407 eV ==== 
     psi = 0.559*[#  10]+0.043*[#  13]+0.043*[#  14]+0.043*[#  17]+0.043*[#  18]
          +0.019*[#  12]+0.019*[#  16]+0.013*[#   8]+0.013*[#   9]+0.009*[#  11]
          +0.009*[#  15]+0.002*[#   1]
    |psi|^2 = 0.816
==== e(  19) =     3.02205 eV ==== 
     psi = 0.005*[#  12]+0.005*[#  16]
    |psi|^2 = 0.011
==== e(  20) =     3.81798 eV ==== 
     psi = 0.007*[#   5]+0.005*[#   6]+0.005*[#   7]+0.004*[#   8]+0.004*[#   9]
          +0.002*[#  12]+0.002*[#  16]
    |psi|^2 = 0.028

 k =   0.0625000000  0.1082531755  0.0000000000
==== e(   1) =  -104.63490 eV ==== 
     psi = 0.995*[#   1]+0.002*[#  12]+0.002*[#  16]
    |psi|^2 = 1.000
==== e(   2) =   -65.02904 eV ==== 
     psi = 0.999*[#   2]
    |psi|^2 = 1.000
==== e(   3) =   -65.02765 eV ==== 
     psi = 0.500*[#   3]+0.500*[#   4]
    |psi|^2 = 1.000
==== e(   4) =   -65.02760 eV ==== 
     psi = 0.500*[#   3]+0.500*[#   4]
    |psi|^2 = 1.000
==== e(   5) =   -15.66423 eV ==== 
     psi = 0.374*[#  11]+0.374*[#  15]+0.237*[#  10]+0.004*[#  12]+0.004*[#  16]
          +0.001*[#  13]+0.001*[#  14]+0.001*[#  17]+0.001*[#  18]
    |psi|^2 = 1.000
==== e(   6) =   -14.78079 eV ==== 
     psi = 0.493*[#  11]+0.493*[#  15]+0.003*[#  12]+0.003*[#  16]+0.001*[#  13]
          +0.001*[#  14]+0.001*[#  17]+0.001*[#  18]
    |psi|^2 = 0.998
==== e(   7) =    -6.65020 eV ==== 
     psi = 0.387*[#  12]+0.387*[#  16]+0.082*[#  10]+0.061*[#   5]+0.036*[#  11]
          +0.036*[#  15]+0.002*[#   1]
    |psi|^2 = 0.995
==== e(   8) =    -5.10491 eV ==== 
     psi = 0.150*[#   8]+0.150*[#   9]+0.116*[#  13]+0.116*[#  14]+0.116*[#  17]
          +0.116*[#  18]+0.064*[#   6]+0.064*[#   7]+0.048*[#  12]+0.048*[#  16]
          
    |psi|^2 = 0.990
==== e(   9) =    -4.83424 eV ==== 
     psi = 0.166*[#   8]+0.166*[#   9]+0.116*[#  13]+0.116*[#  14]+0.116*[#  17]
          +0.116*[#  18]+0.097*[#   6]+0.097*[#   7]
    |psi|^2 = 0.991
==== e(  10) =    -3.77477 eV ==== 
     psi = 0.149*[#  13]+0.149*[#  14]+0.149*[#  17]+0.149*[#  18]+0.112*[#   5]
          +0.090*[#   6]+0.090*[#   7]+0.027*[#  10]+0.023*[#   8]+0.023*[#   9]
          +0.010*[#  11]+0.010*[#  15]+0.002*[#  12]+0.002*[#  16]
    |psi|^2 = 0.982
==== e(  11) =    -3.57441 eV ==== 
     psi = 0.416*[#  12]+0.416*[#  16]+0.031*[#   6]+0.031*[#   7]+0.023*[#  13]
          +0.023*[#  14]+0.023*[#  17]+0.023*[#  18]+0.002*[#  11]+0.002*[#  15]
          
    |psi|^2 = 0.990
==== e(  12) =    -3.51802 eV ==== 
     psi = 0.232*[#   6]+0.232*[#   7]+0.079*[#  13]+0.079*[#  14]+0.079*[#  17]
          +0.079*[#  18]+0.073*[#   8]+0.073*[#   9]+0.027*[#  12]+0.027*[#  16]
          
    |psi|^2 = 0.981
==== e(  13) =    -3.14863 eV ==== 
     psi = 0.294*[#   5]+0.188*[#   6]+0.188*[#   7]+0.121*[#   8]+0.121*[#   9]
          +0.016*[#  10]+0.010*[#  13]+0.010*[#  14]+0.010*[#  17]+0.010*[#  18]
          +0.004*[#  11]+0.004*[#  15]+0.004*[#  12]+0.004*[#  16]
    |psi|^2 = 0.985
==== e(  14) =    -2.74870 eV ==== 
     psi = 0.154*[#  13]+0.154*[#  14]+0.154*[#  17]+0.154*[#  18]+0.109*[#   8]
          +0.109*[#   9]+0.076*[#   6]+0.076*[#   7]
    |psi|^2 = 0.986
==== e(  15) =    -2.73501 eV ==== 
     psi = 0.514*[#   5]+0.066*[#  13]+0.066*[#  14]+0.066*[#  17]+0.066*[#  18]
          +0.043*[#   8]+0.043*[#   9]+0.034*[#   6]+0.034*[#   7]+0.028*[#  12]
          +0.028*[#  16]
    |psi|^2 = 0.990
==== e(  16) =    -1.67004 eV ==== 
     psi = 0.160*[#   8]+0.160*[#   9]+0.118*[#  13]+0.118*[#  14]+0.118*[#  17]
          +0.118*[#  18]+0.089*[#   6]+0.089*[#   7]+0.004*[#  12]+0.004*[#  16]
          +0.004*[#  11]+0.004*[#  15]
    |psi|^2 = 0.984
==== e(  17) =    -1.41568 eV ==== 
     psi = 0.140*[#   8]+0.140*[#   9]+0.135*[#  13]+0.135*[#  14]+0.135*[#  17]
          +0.135*[#  18]+0.084*[#   6]+0.084*[#   7]
    |psi|^2 = 0.992
==== e(  18) =     2.21576 eV ==== 
     psi = 0.299*[#  10]+0.035*[#  11]+0.035*[#  15]+0.035*[#  12]+0.035*[#  16]
          +0.007*[#  13]+0.007*[#  14]+0.007*[#  17]+0.007*[#  18]
    |psi|^2 = 0.469
==== e(  19) =     2.83468 eV ==== 
 
    |psi|^2 = 0.002
==== e(  20) =     3.18898 eV ==== 
     psi = 0.003*[#  13]+0.003*[#  14]+0.003*[#  17]+0.003*[#  18]
    |psi|^2 = 0.017

 k =   0.0625000000  0.1804219591  0.0000000000
==== e(   1) =  -104.63489 eV ==== 
     psi = 0.995*[#   1]+0.002*[#  12]+0.002*[#  16]
    |psi|^2 = 1.000
==== e(   2) =   -65.02902 eV ==== 
     psi = 0.999*[#   2]
    |psi|^2 = 1.000
==== e(   3) =   -65.02772 eV ==== 
     psi = 0.500*[#   3]+0.500*[#   4]
    |psi|^2 = 1.000
==== e(   4) =   -65.02762 eV ==== 
     psi = 0.500*[#   3]+0.500*[#   4]
    |psi|^2 = 1.000
==== e(   5) =   -15.55020 eV ==== 
     psi = 0.384*[#  11]+0.384*[#  15]+0.212*[#  10]+0.004*[#  12]+0.004*[#  16]
          +0.002*[#  13]+0.002*[#  14]+0.002*[#  17]+0.002*[#  18]
    |psi|^2 = 1.000
==== e(   6) =   -14.71999 eV ==== 
     psi = 0.490*[#  11]+0.490*[#  15]+0.002*[#  12]+0.002*[#  16]+0.002*[#   6]
          +0.002*[#   7]+0.002*[#  13]+0.002*[#  14]+0.002*[#  17]+0.002*[#  18]
          
    |psi|^2 = 0.998
==== e(   7) =    -6.54759 eV ==== 
     psi = 0.377*[#  12]+0.377*[#  16]+0.093*[#  10]+0.053*[#   5]+0.037*[#  11]
          +0.037*[#  15]+0.004*[#  13]+0.004*[#  14]+0.004*[#  17]+0.004*[#  18]
          +0.002*[#   1]
    |psi|^2 = 0.995
==== e(   8) =    -5.37570 eV ==== 
     psi = 0.130*[#  13]+0.130*[#  14]+0.130*[#  17]+0.130*[#  18]+0.126*[#   8]
          +0.126*[#   9]+0.065*[#  12]+0.065*[#  16]+0.042*[#   6]+0.042*[#   7]
          +0.001*[#  11]+0.001*[#  15]
    |psi|^2 = 0.988
==== e(   9) =    -4.83886 eV ==== 
     psi = 0.146*[#   8]+0.146*[#   9]+0.122*[#  13]+0.122*[#  14]+0.122*[#  17]
          +0.122*[#  18]+0.105*[#   6]+0.105*[#   7]
    |psi|^2 = 0.990
==== e(  10) =    -4.34861 eV ==== 
     psi = 0.166*[#  13]+0.166*[#  14]+0.166*[#  17]+0.166*[#  18]+0.091*[#   5]
          +0.061*[#   6]+0.061*[#   7]+0.038*[#  10]+0.014*[#  12]+0.014*[#  16]
          +0.014*[#  11]+0.014*[#  15]+0.005*[#   8]+0.005*[#   9]
    |psi|^2 = 0.982
==== e(  11) =    -3.75094 eV ==== 
     psi = 0.222*[#   6]+0.222*[#   7]+0.116*[#  13]+0.116*[#  14]+0.116*[#  17]
          +0.116*[#  18]+0.035*[#   8]+0.035*[#   9]+0.002*[#   5]
    |psi|^2 = 0.981
==== e(  12) =    -3.49049 eV ==== 
     psi = 0.407*[#  12]+0.407*[#  16]+0.042*[#  13]+0.042*[#  14]+0.042*[#  17]
          +0.042*[#  18]
    |psi|^2 = 0.986
==== e(  13) =    -3.16242 eV ==== 
     psi = 0.250*[#   5]+0.201*[#   6]+0.201*[#   7]+0.145*[#   8]+0.145*[#   9]
          +0.014*[#  10]+0.004*[#  12]+0.004*[#  13]+0.004*[#  14]+0.004*[#  16]
          +0.004*[#  17]+0.004*[#  18]+0.003*[#  11]+0.003*[#  15]
    |psi|^2 = 0.984
==== e(  14) =    -2.73825 eV ==== 
     psi = 0.197*[#   8]+0.197*[#   9]+0.103*[#  13]+0.103*[#  14]+0.103*[#  17]
          +0.103*[#  18]+0.082*[#   6]+0.082*[#   7]+0.013*[#   5]+0.002*[#  12]
          +0.002*[#  16]
    |psi|^2 = 0.986
==== e(  15) =    -2.72849 eV ==== 
     psi = 0.571*[#   5]+0.065*[#   8]+0.065*[#   9]+0.039*[#  13]+0.039*[#  14]
          +0.039*[#  17]+0.039*[#  18]+0.036*[#   6]+0.036*[#   7]+0.031*[#  12]
          +0.031*[#  16]
    |psi|^2 = 0.991
==== e(  16) =    -1.91174 eV ==== 
     psi = 0.150*[#   8]+0.150*[#   9]+0.124*[#   6]+0.124*[#   7]+0.094*[#  13]
          +0.094*[#  14]+0.094*[#  17]+0.094*[#  18]+0.022*[#  12]+0.022*[#  16]
          +0.007*[#  11]+0.007*[#  15]+0.003*[#   5]
    |psi|^2 = 0.985
==== e(  17) =    -1.53068 eV ==== 
     psi = 0.132*[#  13]+0.132*[#  14]+0.132*[#  17]+0.132*[#  18]+0.116*[#   8]
          +0.116*[#   9]+0.112*[#   6]+0.112*[#   7]+0.001*[#  12]+0.001*[#  16]
          +0.001*[#   5]
    |psi|^2 = 0.988
==== e(  18) =     2.55050 eV ==== 
     psi = 0.258*[#  10]+0.027*[#  12]+0.027*[#  16]+0.024*[#  11]+0.024*[#  15]
          +0.010*[#  13]+0.010*[#  14]+0.010*[#  17]+0.010*[#  18]
    |psi|^2 = 0.402
==== e(  19) =     2.94659 eV ==== 
     psi = 0.026*[#  10]+0.003*[#  13]+0.003*[#  14]+0.003*[#  17]+0.003*[#  18]
          +0.002*[#  12]+0.002*[#  16]+0.002*[#  11]+0.002*[#  15]
    |psi|^2 = 0.050
==== e(  20) =     3.07771 eV ==== 
     psi = 0.137*[#  10]+0.013*[#  12]+0.013*[#  16]+0.012*[#  13]+0.012*[#  14]
          +0.012*[#  17]+0.012*[#  18]+0.012*[#  11]+0.012*[#  15]+0.004*[#   5]
          +0.001*[#   8]+0.001*[#   9]
    |psi|^2 = 0.243

 k =   0.0625000000  0.2525907428  0.0000000000
==== e(   1) =  -104.63489 eV ==== 
     psi = 0.995*[#   1]+0.001*[#  12]+0.001*[#  16]
    |psi|^2 = 1.000
==== e(   2) =   -65.02901 eV ==== 
     psi = 0.999*[#   2]
    |psi|^2 = 1.000
==== e(   3) =   -65.02781 eV ==== 
     psi = 0.500*[#   3]+0.500*[#   4]
    |psi|^2 = 1.000
==== e(   4) =   -65.02765 eV ==== 
     psi = 0.500*[#   3]+0.500*[#   4]
    |psi|^2 = 1.000
==== e(   5) =   -15.38997 eV ==== 
     psi = 0.399*[#  11]+0.399*[#  15]+0.176*[#  10]+0.005*[#  12]+0.005*[#  16]
          +0.004*[#  13]+0.004*[#  14]+0.004*[#  17]+0.004*[#  18]
    |psi|^2 = 0.999
==== e(   6) =   -14.64080 eV ==== 
     psi = 0.489*[#  11]+0.489*[#  15]+0.003*[#   6]+0.003*[#   7]+0.002*[#  13]
          +0.002*[#  14]+0.002*[#  17]+0.002*[#  18]+0.001*[#   8]+0.001*[#   9]
          +0.001*[#  12]+0.001*[#  16]
    |psi|^2 = 0.998
==== e(   7) =    -6.44710 eV ==== 
     psi = 0.338*[#  12]+0.338*[#  16]+0.118*[#  10]+0.042*[#  11]+0.042*[#  15]
          +0.036*[#   5]+0.018*[#  13]+0.018*[#  14]+0.018*[#  17]+0.018*[#  18]
          +0.002*[#   1]+0.001*[#   8]+0.001*[#   9]+0.001*[#   6]+0.001*[#   7]
          
    |psi|^2 = 0.995
==== e(   8) =    -5.71194 eV ==== 
     psi = 0.152*[#  13]+0.152*[#  14]+0.152*[#  17]+0.152*[#  18]+0.093*[#   8]
          +0.093*[#   9]+0.072*[#  12]+0.072*[#  16]+0.018*[#   6]+0.018*[#   7]
          +0.003*[#   5]+0.002*[#  10]+0.002*[#  11]+0.002*[#  15]
    |psi|^2 = 0.985
==== e(   9) =    -4.91648 eV ==== 
     psi = 0.150*[#  13]+0.150*[#  14]+0.150*[#  17]+0.150*[#  18]+0.079*[#   5]
          +0.071*[#   6]+0.071*[#   7]+0.054*[#  12]+0.054*[#  16]+0.029*[#  10]
          +0.010*[#  11]+0.010*[#  15]+0.003*[#   8]+0.003*[#   9]
    |psi|^2 = 0.986
==== e(  10) =    -4.84549 eV ==== 
     psi = 0.134*[#  13]+0.134*[#  14]+0.134*[#  17]+0.134*[#  18]+0.119*[#   8]
          +0.119*[#   9]+0.103*[#   6]+0.103*[#   7]+0.003*[#  10]+0.003*[#   5]
          +0.001*[#  12]+0.001*[#  16]
    |psi|^2 = 0.988
==== e(  11) =    -3.97606 eV ==== 
     psi = 0.181*[#   6]+0.181*[#   7]+0.142*[#  13]+0.142*[#  14]+0.142*[#  17]
          +0.142*[#  18]+0.021*[#   8]+0.021*[#   9]+0.003*[#   5]+0.002*[#  12]
          +0.002*[#  16]+0.001*[#  10]
    |psi|^2 = 0.981
==== e(  12) =    -3.56523 eV ==== 
     psi = 0.344*[#  12]+0.344*[#  16]+0.066*[#  13]+0.066*[#  14]+0.066*[#  17]
          +0.066*[#  18]+0.015*[#   8]+0.015*[#   9]
    |psi|^2 = 0.985
==== e(  13) =    -3.17907 eV ==== 
     psi = 0.238*[#   5]+0.200*[#   6]+0.200*[#   7]+0.152*[#   8]+0.152*[#   9]
          +0.014*[#  10]+0.006*[#  12]+0.006*[#  16]+0.003*[#  11]+0.003*[#  15]
          +0.002*[#  13]+0.002*[#  14]+0.002*[#  17]+0.002*[#  18]
    |psi|^2 = 0.983
==== e(  14) =    -2.76714 eV ==== 
     psi = 0.258*[#   8]+0.258*[#   9]+0.080*[#   6]+0.080*[#   7]+0.070*[#  13]
          +0.070*[#  14]+0.070*[#  17]+0.070*[#  18]+0.015*[#   5]+0.008*[#  12]
          +0.008*[#  16]
    |psi|^2 = 0.987
==== e(  15) =    -2.75226 eV ==== 
     psi = 0.591*[#   5]+0.102*[#   8]+0.102*[#   9]+0.033*[#  12]+0.033*[#  16]
          +0.025*[#   6]+0.025*[#   7]+0.020*[#  13]+0.020*[#  14]+0.020*[#  17]
          +0.020*[#  18]
    |psi|^2 = 0.992
==== e(  16) =    -2.04131 eV ==== 
     psi = 0.152*[#   6]+0.152*[#   7]+0.139*[#   8]+0.139*[#   9]+0.072*[#  12]
          +0.072*[#  16]+0.056*[#  13]+0.056*[#  14]+0.056*[#  17]+0.056*[#  18]
          +0.018*[#   5]+0.008*[#  11]+0.008*[#  15]
    |psi|^2 = 0.988
==== e(  17) =    -1.59646 eV ==== 
     psi = 0.151*[#   6]+0.151*[#   7]+0.130*[#  13]+0.130*[#  14]+0.130*[#  17]
          +0.130*[#  18]+0.078*[#   8]+0.078*[#   9]+0.003*[#  12]+0.003*[#  16]
          
    |psi|^2 = 0.989
==== e(  18) =     2.52492 eV ==== 
     psi = 0.294*[#  10]+0.027*[#  13]+0.027*[#  14]+0.027*[#  17]+0.027*[#  18]
          +0.023*[#  12]+0.023*[#  16]+0.018*[#  11]+0.018*[#  15]+0.002*[#   5]
          +0.002*[#   8]+0.002*[#   9]
    |psi|^2 = 0.492
==== e(  19) =     2.92065 eV ==== 
     psi = 0.112*[#  10]+0.011*[#  12]+0.011*[#  16]+0.008*[#  11]+0.008*[#  15]
          +0.004*[#  13]+0.004*[#  14]+0.004*[#  17]+0.004*[#  18]
    |psi|^2 = 0.167
==== e(  20) =     3.17854 eV ==== 
     psi = 0.002*[#   8]+0.002*[#   9]+0.002*[#  10]
    |psi|^2 = 0.012

 k =   0.0625000000  0.3247595264  0.0000000000
==== e(   1) =  -104.63489 eV ==== 
     psi = 0.995*[#   1]
    |psi|^2 = 1.000
==== e(   2) =   -65.02899 eV ==== 
     psi = 0.999*[#   2]
    |psi|^2 = 1.000
==== e(   3) =   -65.02791 eV ==== 
     psi = 0.499*[#   3]+0.499*[#   4]
    |psi|^2 = 1.000
==== e(   4) =   -65.02767 eV ==== 
     psi = 0.500*[#   3]+0.500*[#   4]
    |psi|^2 = 1.000
==== e(   5) =   -15.19774 eV ==== 
     psi = 0.419*[#  11]+0.419*[#  15]+0.134*[#  10]+0.004*[#  12]+0.004*[#  16]
          +0.004*[#  13]+0.004*[#  14]+0.004*[#  17]+0.004*[#  18]
    |psi|^2 = 0.999
==== e(   6) =   -14.55787 eV ==== 
     psi = 0.488*[#  11]+0.488*[#  15]+0.004*[#   6]+0.004*[#   7]+0.002*[#   8]
          +0.002*[#   9]+0.002*[#  13]+0.002*[#  14]+0.002*[#  17]+0.002*[#  18]
          
    |psi|^2 = 0.999
==== e(   7) =    -6.50402 eV ==== 
     psi = 0.192*[#  12]+0.192*[#  16]+0.161*[#  10]+0.081*[#  13]+0.081*[#  14]
          +0.081*[#  17]+0.081*[#  18]+0.043*[#  11]+0.043*[#  15]+0.009*[#   8]
          +0.009*[#   9]+0.008*[#   5]+0.004*[#   6]+0.004*[#   7]+0.002*[#   1]
          
    |psi|^2 = 0.993
==== e(   8) =    -6.04797 eV ==== 
     psi = 0.153*[#  13]+0.153*[#  14]+0.153*[#  17]+0.153*[#  18]+0.120*[#  12]
          +0.120*[#  16]+0.050*[#   8]+0.050*[#   9]+0.010*[#   5]+0.008*[#   6]
          +0.008*[#   7]+0.003*[#  11]+0.003*[#  15]
    |psi|^2 = 0.984
==== e(   9) =    -5.24748 eV ==== 
     psi = 0.156*[#  12]+0.156*[#  16]+0.112*[#  13]+0.112*[#  14]+0.112*[#  17]
          +0.112*[#  18]+0.085*[#   5]+0.052*[#   6]+0.052*[#   7]+0.013*[#   8]
          +0.013*[#   9]+0.008*[#  10]+0.002*[#  11]+0.002*[#  15]
    |psi|^2 = 0.988
==== e(  10) =    -4.85589 eV ==== 
     psi = 0.138*[#  13]+0.138*[#  14]+0.138*[#  17]+0.138*[#  18]+0.126*[#   6]
          +0.126*[#   7]+0.090*[#   8]+0.090*[#   9]+0.002*[#  10]+0.001*[#  12]
          +0.001*[#  16]
    |psi|^2 = 0.989
==== e(  11) =    -4.18016 eV ==== 
     psi = 0.165*[#  13]+0.165*[#  14]+0.165*[#  17]+0.165*[#  18]+0.143*[#   6]
          +0.143*[#   7]+0.013*[#   8]+0.013*[#   9]+0.003*[#   5]+0.002*[#  10]
          +0.001*[#  12]+0.001*[#  16]
    |psi|^2 = 0.980
==== e(  12) =    -3.80424 eV ==== 
     psi = 0.292*[#  12]+0.292*[#  16]+0.069*[#  13]+0.069*[#  14]+0.069*[#  17]
          +0.069*[#  18]+0.053*[#   8]+0.053*[#   9]+0.009*[#   6]+0.009*[#   7]
          +0.002*[#  10]+0.001*[#  11]+0.001*[#  15]
    |psi|^2 = 0.987
==== e(  13) =    -3.19395 eV ==== 
     psi = 0.245*[#   5]+0.201*[#   6]+0.201*[#   7]+0.145*[#   8]+0.145*[#   9]
          +0.014*[#  10]+0.008*[#  12]+0.008*[#  16]+0.003*[#  13]+0.003*[#  14]
          +0.003*[#  17]+0.003*[#  18]+0.002*[#  11]+0.002*[#  15]
    |psi|^2 = 0.981
==== e(  14) =    -2.83933 eV ==== 
     psi = 0.271*[#   8]+0.271*[#   9]+0.152*[#   5]+0.059*[#   6]+0.059*[#   7]
          +0.041*[#  13]+0.041*[#  14]+0.041*[#  17]+0.041*[#  18]+0.006*[#  12]
          +0.006*[#  16]
    |psi|^2 = 0.989
==== e(  15) =    -2.78722 eV ==== 
     psi = 0.449*[#   5]+0.163*[#   8]+0.163*[#   9]+0.040*[#   6]+0.040*[#   7]
          +0.035*[#  12]+0.035*[#  16]+0.017*[#  13]+0.017*[#  14]+0.017*[#  17]
          +0.017*[#  18]+0.002*[#  10]
    |psi|^2 = 0.992
==== e(  16) =    -2.00519 eV ==== 
     psi = 0.157*[#   6]+0.157*[#   7]+0.126*[#   8]+0.126*[#   9]+0.122*[#  12]
          +0.122*[#  16]+0.035*[#   5]+0.032*[#  13]+0.032*[#  14]+0.032*[#  17]
          +0.032*[#  18]+0.008*[#  11]+0.008*[#  15]
    |psi|^2 = 0.988
==== e(  17) =    -1.61146 eV ==== 
     psi = 0.186*[#   6]+0.186*[#   7]+0.124*[#  13]+0.124*[#  14]+0.124*[#  17]
          +0.124*[#  18]+0.050*[#   8]+0.050*[#   9]+0.010*[#  12]+0.010*[#  16]
          +0.001*[#  11]+0.001*[#  15]
    |psi|^2 = 0.991
==== e(  18) =     2.03999 eV ==== 
     psi = 0.334*[#  10]+0.033*[#  13]+0.033*[#  14]+0.033*[#  17]+0.033*[#  18]
          +0.020*[#  12]+0.020*[#  16]+0.014*[#  11]+0.014*[#  15]+0.003*[#   8]
          +0.003*[#   9]+0.001*[#   1]
    |psi|^2 = 0.541
==== e(  19) =     3.17619 eV ==== 
     psi = 0.108*[#  10]+0.009*[#  12]+0.009*[#  16]+0.006*[#  11]+0.006*[#  15]
          +0.004*[#  13]+0.004*[#  14]+0.004*[#  17]+0.004*[#  18]+0.003*[#   8]
          +0.003*[#   9]+0.001*[#   6]+0.001*[#   7]
    |psi|^2 = 0.162
==== e(  20) =     3.44611 eV ==== 
     psi = 0.013*[#  10]+0.002*[#   8]+0.002*[#   9]+0.001*[#  12]+0.001*[#  16]
          +0.001*[#   5]
    |psi|^2 = 0.026

 k =   0.0625000000  0.3969283101  0.0000000000
==== e(   1) =  -104.63489 eV ==== 
     psi = 0.995*[#   1]
    |psi|^2 = 1.000
==== e(   2) =   -65.02897 eV ==== 
     psi = 0.999*[#   2]
    |psi|^2 = 1.000
==== e(   3) =   -65.02800 eV ==== 
     psi = 0.499*[#   3]+0.499*[#   4]
    |psi|^2 = 1.000
==== e(   4) =   -65.02770 eV ==== 
     psi = 0.500*[#   3]+0.500*[#   4]
    |psi|^2 = 1.000
==== e(   5) =   -14.99417 eV ==== 
     psi = 0.441*[#  11]+0.441*[#  15]+0.088*[#  10]+0.004*[#  12]+0.004*[#  16]
          +0.004*[#  13]+0.004*[#  14]+0.004*[#  17]+0.004*[#  18]
    |psi|^2 = 0.999
==== e(   6) =   -14.48998 eV ==== 
     psi = 0.487*[#  11]+0.487*[#  15]+0.005*[#   6]+0.005*[#   7]+0.003*[#   8]
          +0.003*[#   9]+0.003*[#  10]+0.001*[#  13]+0.001*[#  14]+0.001*[#  17]
          +0.001*[#  18]
    |psi|^2 = 0.999
==== e(   7) =    -6.85092 eV ==== 
     psi = 0.174*[#  10]+0.147*[#  13]+0.147*[#  14]+0.147*[#  17]+0.147*[#  18]
          +0.066*[#  12]+0.066*[#  16]+0.028*[#  11]+0.028*[#  15]+0.013*[#   8]
          +0.013*[#   9]+0.008*[#   6]+0.008*[#   7]+0.002*[#   1]
    |psi|^2 = 0.991
==== e(   8) =    -6.25718 eV ==== 
     psi = 0.158*[#  13]+0.158*[#  14]+0.158*[#  17]+0.158*[#  18]+0.131*[#  12]
          +0.131*[#  16]+0.021*[#   8]+0.021*[#   9]+0.010*[#  10]+0.009*[#   6]
          +0.009*[#   7]+0.008*[#  11]+0.008*[#  15]+0.005*[#   5]
    |psi|^2 = 0.986
==== e(   9) =    -5.25443 eV ==== 
     psi = 0.269*[#  12]+0.269*[#  16]+0.083*[#   5]+0.063*[#  13]+0.063*[#  14]
          +0.063*[#  17]+0.063*[#  18]+0.035*[#   6]+0.035*[#   7]+0.022*[#   8]
          +0.022*[#   9]
    |psi|^2 = 0.988
==== e(  10) =    -4.85998 eV ==== 
     psi = 0.144*[#   6]+0.144*[#   7]+0.140*[#  13]+0.140*[#  14]+0.140*[#  17]
          +0.140*[#  18]+0.065*[#   8]+0.065*[#   9]+0.004*[#  12]+0.004*[#  16]
          +0.004*[#  10]
    |psi|^2 = 0.990
==== e(  11) =    -4.35882 eV ==== 
     psi = 0.187*[#  13]+0.187*[#  14]+0.187*[#  17]+0.187*[#  18]+0.103*[#   6]
          +0.103*[#   7]+0.007*[#   8]+0.007*[#   9]+0.005*[#  10]+0.003*[#   5]
          
    |psi|^2 = 0.979
==== e(  12) =    -4.08487 eV ==== 
     psi = 0.280*[#  12]+0.280*[#  16]+0.074*[#   8]+0.074*[#   9]+0.057*[#  13]
          +0.057*[#  14]+0.057*[#  17]+0.057*[#  18]+0.023*[#   6]+0.023*[#   7]
          +0.002*[#  11]+0.002*[#  15]+0.002*[#  10]
    |psi|^2 = 0.990
==== e(  13) =    -3.20444 eV ==== 
     psi = 0.277*[#   5]+0.201*[#   6]+0.201*[#   7]+0.124*[#   8]+0.124*[#   9]
          +0.012*[#  10]+0.009*[#  12]+0.009*[#  16]+0.004*[#  13]+0.004*[#  14]
          +0.004*[#  17]+0.004*[#  18]+0.002*[#  11]+0.002*[#  15]
    |psi|^2 = 0.979
==== e(  14) =    -2.93140 eV ==== 
     psi = 0.322*[#   8]+0.322*[#   9]+0.158*[#   5]+0.047*[#   6]+0.047*[#   7]
          +0.022*[#  13]+0.022*[#  14]+0.022*[#  17]+0.022*[#  18]+0.002*[#  12]
          +0.002*[#  16]+0.002*[#  10]
    |psi|^2 = 0.991
==== e(  15) =    -2.83688 eV ==== 
     psi = 0.418*[#   5]+0.185*[#   8]+0.185*[#   9]+0.048*[#   6]+0.048*[#   7]
          +0.029*[#  12]+0.029*[#  16]+0.011*[#  13]+0.011*[#  14]+0.011*[#  17]
          +0.011*[#  18]+0.005*[#  10]
    |psi|^2 = 0.992
==== e(  16) =    -1.88897 eV ==== 
     psi = 0.158*[#   6]+0.158*[#   7]+0.141*[#  12]+0.141*[#  16]+0.111*[#   8]
          +0.111*[#   9]+0.044*[#   5]+0.028*[#  13]+0.028*[#  14]+0.028*[#  17]
          +0.028*[#  18]+0.006*[#  11]+0.006*[#  15]+0.001*[#  10]
    |psi|^2 = 0.989
==== e(  17) =    -1.60270 eV ==== 
     psi = 0.206*[#   6]+0.206*[#   7]+0.115*[#  13]+0.115*[#  14]+0.115*[#  17]
          +0.115*[#  18]+0.038*[#   8]+0.038*[#   9]+0.021*[#  12]+0.021*[#  16]
          +0.001*[#  11]+0.001*[#  15]
    |psi|^2 = 0.993
==== e(  18) =     1.63186 eV ==== 
     psi = 0.419*[#  10]+0.039*[#  13]+0.039*[#  14]+0.039*[#  17]+0.039*[#  18]
          +0.018*[#  12]+0.018*[#  16]+0.012*[#  11]+0.012*[#  15]+0.005*[#   8]
          +0.005*[#   9]+0.002*[#   1]
    |psi|^2 = 0.647
==== e(  19) =     3.27160 eV ==== 
     psi = 0.075*[#  10]+0.007*[#  12]+0.007*[#  16]+0.004*[#   8]+0.004*[#   9]
          +0.003*[#  11]+0.003*[#  15]+0.003*[#  13]+0.003*[#  14]+0.003*[#  17]
          +0.003*[#  18]+0.002*[#   6]+0.002*[#   7]
    |psi|^2 = 0.118
==== e(  20) =     3.68783 eV ==== 
     psi = 0.016*[#  10]+0.002*[#  13]+0.002*[#  14]+0.002*[#  17]+0.002*[#  18]
          +0.002*[#   8]+0.002*[#   9]+0.002*[#  12]+0.002*[#  16]+0.001*[#   5]
          
    |psi|^2 = 0.034

 k =   0.0625000000  0.4690970937  0.0000000000
==== e(   1) =  -104.63488 eV ==== 
     psi = 0.995*[#   1]
    |psi|^2 = 1.000
==== e(   2) =   -65.02896 eV ==== 
     psi = 0.998*[#   2]
    |psi|^2 = 1.000
==== e(   3) =   -65.02807 eV ==== 
     psi = 0.499*[#   3]+0.499*[#   4]
    |psi|^2 = 1.000
==== e(   4) =   -65.02772 eV ==== 
     psi = 0.500*[#   3]+0.500*[#   4]
    |psi|^2 = 1.000
==== e(   5) =   -14.80742 eV ==== 
     psi = 0.466*[#  11]+0.466*[#  15]+0.045*[#  10]+0.004*[#  12]+0.004*[#  16]
          +0.003*[#  13]+0.003*[#  14]+0.003*[#  17]+0.003*[#  18]
    |psi|^2 = 0.998
==== e(   6) =   -14.45587 eV ==== 
     psi = 0.484*[#  11]+0.484*[#  15]+0.010*[#  10]+0.006*[#   6]+0.006*[#   7]
          +0.003*[#   8]+0.003*[#   9]
    |psi|^2 = 0.999
==== e(   7) =    -7.20762 eV ==== 
     psi = 0.189*[#  10]+0.165*[#  13]+0.165*[#  14]+0.165*[#  17]+0.165*[#  18]
          +0.036*[#  12]+0.036*[#  16]+0.015*[#  11]+0.015*[#  15]+0.010*[#   6]
          +0.010*[#   7]+0.009*[#   8]+0.009*[#   9]+0.002*[#   1]
    |psi|^2 = 0.993
==== e(   8) =    -6.41886 eV ==== 
     psi = 0.183*[#  13]+0.183*[#  14]+0.183*[#  17]+0.183*[#  18]+0.103*[#  12]
          +0.103*[#  16]+0.008*[#   8]+0.008*[#   9]+0.007*[#  11]+0.007*[#  15]
          +0.006*[#  10]+0.005*[#   6]+0.005*[#   7]
    |psi|^2 = 0.986
==== e(   9) =    -5.08248 eV ==== 
     psi = 0.308*[#  12]+0.308*[#  16]+0.070*[#   5]+0.040*[#   8]+0.040*[#   9]
          +0.040*[#  13]+0.040*[#  14]+0.040*[#  17]+0.040*[#  18]+0.029*[#   6]
          +0.029*[#   7]+0.002*[#  11]+0.002*[#  15]
    |psi|^2 = 0.987
==== e(  10) =    -4.84836 eV ==== 
     psi = 0.169*[#   6]+0.169*[#   7]+0.133*[#  13]+0.133*[#  14]+0.133*[#  17]
          +0.133*[#  18]+0.045*[#   8]+0.045*[#   9]+0.015*[#  12]+0.015*[#  16]
          +0.004*[#  10]
    |psi|^2 = 0.993
==== e(  11) =    -4.51212 eV ==== 
     psi = 0.196*[#  13]+0.196*[#  14]+0.196*[#  17]+0.196*[#  18]+0.058*[#   6]
          +0.058*[#   7]+0.023*[#  12]+0.023*[#  16]+0.011*[#  10]+0.008*[#   8]
          +0.008*[#   9]+0.002*[#   5]
    |psi|^2 = 0.977
==== e(  12) =    -4.32562 eV ==== 
     psi = 0.277*[#  12]+0.277*[#  16]+0.063*[#   8]+0.063*[#   9]+0.057*[#  13]
          +0.057*[#  14]+0.057*[#  17]+0.057*[#  18]+0.038*[#   6]+0.038*[#   7]
          +0.003*[#  11]+0.003*[#  15]+0.002*[#   5]
    |psi|^2 = 0.990
==== e(  13) =    -3.21203 eV ==== 
     psi = 0.352*[#   5]+0.200*[#   6]+0.200*[#   7]+0.083*[#   8]+0.083*[#   9]
          +0.010*[#  12]+0.010*[#  16]+0.008*[#  10]+0.007*[#  13]+0.007*[#  14]
          +0.007*[#  17]+0.007*[#  18]+0.002*[#  11]+0.002*[#  15]
    |psi|^2 = 0.978
==== e(  14) =    -3.00328 eV ==== 
     psi = 0.379*[#   8]+0.379*[#   9]+0.118*[#   5]+0.042*[#   6]+0.042*[#   7]
          +0.008*[#  13]+0.008*[#  14]+0.008*[#  17]+0.008*[#  18]+0.003*[#  10]
          
    |psi|^2 = 0.994
==== e(  15) =    -2.90110 eV ==== 
     psi = 0.391*[#   5]+0.209*[#   8]+0.209*[#   9]+0.054*[#   6]+0.054*[#   7]
          +0.018*[#  12]+0.018*[#  16]+0.013*[#  10]+0.006*[#  13]+0.006*[#  14]
          +0.006*[#  17]+0.006*[#  18]
    |psi|^2 = 0.992
==== e(  16) =    -1.77479 eV ==== 
     psi = 0.162*[#   6]+0.162*[#   7]+0.140*[#  12]+0.140*[#  16]+0.099*[#   8]
          +0.099*[#   9]+0.048*[#   5]+0.032*[#  13]+0.032*[#  14]+0.032*[#  17]
          +0.032*[#  18]+0.005*[#  11]+0.005*[#  15]+0.004*[#  10]
    |psi|^2 = 0.991
==== e(  17) =    -1.59726 eV ==== 
     psi = 0.215*[#   6]+0.215*[#   7]+0.106*[#  13]+0.106*[#  14]+0.106*[#  17]
          +0.106*[#  18]+0.035*[#   8]+0.035*[#   9]+0.031*[#  12]+0.031*[#  16]
          +0.003*[#   5]+0.002*[#  11]+0.002*[#  15]
    |psi|^2 = 0.993
==== e(  18) =     1.35155 eV ==== 
     psi = 0.500*[#  10]+0.043*[#  13]+0.043*[#  14]+0.043*[#  17]+0.043*[#  18]
          +0.018*[#  12]+0.018*[#  16]+0.010*[#  11]+0.010*[#  15]+0.008*[#   8]
          +0.008*[#   9]+0.002*[#   1]
    |psi|^2 = 0.746
==== e(  19) =     3.27825 eV ==== 
     psi = 0.038*[#  10]+0.006*[#  12]+0.006*[#  16]+0.002*[#   8]+0.002*[#   9]
          +0.002*[#  13]+0.002*[#  14]+0.002*[#  17]+0.002*[#  18]+0.001*[#   6]
          +0.001*[#   7]+0.001*[#  11]+0.001*[#  15]
    |psi|^2 = 0.066
==== e(  20) =     3.69773 eV ==== 
     psi = 0.003*[#   8]+0.003*[#   9]+0.002*[#   5]+0.002*[#  13]+0.002*[#  14]
          +0.002*[#  17]+0.002*[#  18]
    |psi|^2 = 0.017

 k =   0.0625000000  0.5412658774  0.0000000000
==== e(   1) =  -104.63488 eV ==== 
     psi = 0.995*[#   1]+0.001*[#  13]+0.001*[#  14]+0.001*[#  17]+0.001*[#  18]
          
    |psi|^2 = 1.000
==== e(   2) =   -65.02895 eV ==== 
     psi = 0.998*[#   2]
    |psi|^2 = 1.000
==== e(   3) =   -65.02811 eV ==== 
     psi = 0.499*[#   3]+0.499*[#   4]
    |psi|^2 = 1.000
==== e(   4) =   -65.02773 eV ==== 
     psi = 0.500*[#   3]+0.500*[#   4]
    |psi|^2 = 1.000
==== e(   5) =   -14.67856 eV ==== 
     psi = 0.488*[#  11]+0.488*[#  15]+0.008*[#  10]+0.004*[#  12]+0.004*[#  16]
          +0.001*[#  13]+0.001*[#  14]+0.001*[#  17]+0.001*[#  18]
    |psi|^2 = 0.998
==== e(   6) =   -14.45981 eV ==== 
     psi = 0.475*[#  11]+0.475*[#  15]+0.025*[#  10]+0.007*[#   6]+0.007*[#   7]
          +0.004*[#   8]+0.004*[#   9]
    |psi|^2 = 0.999
==== e(   7) =    -7.41067 eV ==== 
     psi = 0.201*[#  10]+0.170*[#  13]+0.170*[#  14]+0.170*[#  17]+0.170*[#  18]
          +0.029*[#  12]+0.029*[#  16]+0.012*[#   6]+0.012*[#   7]+0.008*[#  11]
          +0.008*[#  15]+0.007*[#   8]+0.007*[#   9]+0.002*[#   1]+0.001*[#   5]
          
    |psi|^2 = 0.995
==== e(   8) =    -6.51431 eV ==== 
     psi = 0.197*[#  13]+0.197*[#  14]+0.197*[#  17]+0.197*[#  18]+0.091*[#  12]
          +0.091*[#  16]+0.005*[#  11]+0.005*[#  15]+0.002*[#   6]+0.002*[#   7]
          
    |psi|^2 = 0.986
==== e(   9) =    -4.90113 eV ==== 
     psi = 0.244*[#  12]+0.244*[#  16]+0.080*[#   8]+0.080*[#   9]+0.055*[#   5]
          +0.051*[#  13]+0.051*[#  14]+0.051*[#  17]+0.051*[#  18]+0.035*[#   6]
          +0.035*[#   7]+0.002*[#  10]+0.002*[#  11]+0.002*[#  15]
    |psi|^2 = 0.986
==== e(  10) =    -4.82418 eV ==== 
     psi = 0.200*[#   6]+0.200*[#   7]+0.114*[#  13]+0.114*[#  14]+0.114*[#  17]
          +0.114*[#  18]+0.035*[#   8]+0.035*[#   9]+0.031*[#  12]+0.031*[#  16]
          +0.004*[#   5]
    |psi|^2 = 0.995
==== e(  11) =    -4.60674 eV ==== 
     psi = 0.196*[#  12]+0.196*[#  16]+0.136*[#  13]+0.136*[#  14]+0.136*[#  17]
          +0.136*[#  18]+0.010*[#   6]+0.010*[#   7]+0.009*[#  10]+0.006*[#   8]
          +0.006*[#   9]+0.001*[#  11]+0.001*[#  15]
    |psi|^2 = 0.979
==== e(  12) =    -4.50838 eV ==== 
     psi = 0.184*[#  12]+0.184*[#  16]+0.116*[#  13]+0.116*[#  14]+0.116*[#  17]
          +0.116*[#  18]+0.046*[#   6]+0.046*[#   7]+0.024*[#   8]+0.024*[#   9]
          +0.003*[#   5]+0.003*[#  10]+0.003*[#  11]+0.003*[#  15]
    |psi|^2 = 0.985
==== e(  13) =    -3.21960 eV ==== 
     psi = 0.441*[#   5]+0.194*[#   6]+0.194*[#   7]+0.045*[#   8]+0.045*[#   9]
          +0.009*[#  12]+0.009*[#  16]+0.008*[#  13]+0.008*[#  14]+0.008*[#  17]
          +0.008*[#  18]+0.004*[#  10]+0.002*[#  11]+0.002*[#  15]
    |psi|^2 = 0.977
==== e(  14) =    -3.03244 eV ==== 
     psi = 0.434*[#   8]+0.434*[#   9]+0.045*[#   6]+0.045*[#   7]+0.026*[#   5]
          +0.002*[#  12]+0.002*[#  16]+0.001*[#  10]+0.001*[#  13]+0.001*[#  14]
          +0.001*[#  17]+0.001*[#  18]
    |psi|^2 = 0.995
==== e(  15) =    -2.95509 eV ==== 
     psi = 0.400*[#   5]+0.216*[#   8]+0.216*[#   9]+0.056*[#   6]+0.056*[#   7]
          +0.024*[#  10]+0.005*[#  12]+0.005*[#  16]+0.004*[#  13]+0.004*[#  14]
          +0.004*[#  17]+0.004*[#  18]
    |psi|^2 = 0.993
==== e(  16) =    -1.69522 eV ==== 
     psi = 0.156*[#   6]+0.156*[#   7]+0.152*[#  12]+0.152*[#  16]+0.102*[#   8]
          +0.102*[#   9]+0.053*[#   5]+0.026*[#  13]+0.026*[#  14]+0.026*[#  17]
          +0.026*[#  18]+0.007*[#  10]+0.005*[#  11]+0.005*[#  15]
    |psi|^2 = 0.993
==== e(  17) =    -1.61179 eV ==== 
     psi = 0.228*[#   6]+0.228*[#   7]+0.110*[#  13]+0.110*[#  14]+0.110*[#  17]
          +0.110*[#  18]+0.026*[#   8]+0.026*[#   9]+0.019*[#  12]+0.019*[#  16]
          +0.004*[#   5]+0.001*[#  11]+0.001*[#  15]
    |psi|^2 = 0.992
==== e(  18) =     1.21477 eV ==== 
     psi = 0.549*[#  10]+0.045*[#  13]+0.045*[#  14]+0.045*[#  17]+0.045*[#  18]
          +0.019*[#  12]+0.019*[#  16]+0.011*[#   8]+0.011*[#   9]+0.008*[#  11]
          +0.008*[#  15]+0.002*[#   1]
    |psi|^2 = 0.807
==== e(  19) =     3.24405 eV ==== 
     psi = 0.005*[#  12]+0.005*[#  16]+0.004*[#  10]+0.001*[#  13]+0.001*[#  14]
          +0.001*[#  17]+0.001*[#  18]
    |psi|^2 = 0.022
==== e(  20) =     3.80655 eV ==== 
     psi = 0.004*[#   5]+0.003*[#   8]+0.003*[#   9]+0.002*[#   6]+0.002*[#   7]
          +0.001*[#  13]+0.001*[#  14]+0.001*[#  17]+0.001*[#  18]
    |psi|^2 = 0.020

 k =   0.1250000000  0.2165063509  0.0000000000
==== e(   1) =  -104.63489 eV ==== 
     psi = 0.995*[#   1]+0.001*[#  12]+0.001*[#  16]
    |psi|^2 = 1.000
==== e(   2) =   -65.02901 eV ==== 
     psi = 0.999*[#   2]
    |psi|^2 = 1.000
==== e(   3) =   -65.02779 eV ==== 
     psi = 0.500*[#   3]+0.500*[#   4]
    |psi|^2 = 1.000
==== e(   4) =   -65.02765 eV ==== 
     psi = 0.500*[#   3]+0.500*[#   4]
    |psi|^2 = 1.000
==== e(   5) =   -15.41562 eV ==== 
     psi = 0.397*[#  11]+0.397*[#  15]+0.182*[#  10]+0.005*[#  12]+0.005*[#  16]
          +0.003*[#  13]+0.003*[#  14]+0.003*[#  17]+0.003*[#  18]
    |psi|^2 = 0.999
==== e(   6) =   -14.65260 eV ==== 
     psi = 0.489*[#  11]+0.489*[#  15]+0.003*[#   6]+0.003*[#   7]+0.002*[#  13]
          +0.002*[#  14]+0.002*[#  17]+0.002*[#  18]+0.001*[#   8]+0.001*[#   9]
          +0.001*[#  12]+0.001*[#  16]
    |psi|^2 = 0.998
==== e(   7) =    -6.45383 eV ==== 
     psi = 0.351*[#  12]+0.351*[#  16]+0.112*[#  10]+0.041*[#  11]+0.041*[#  15]
          +0.040*[#   5]+0.014*[#  13]+0.014*[#  14]+0.014*[#  17]+0.014*[#  18]
          +0.002*[#   1]+0.001*[#   6]+0.001*[#   7]
    |psi|^2 = 0.995
==== e(   8) =    -5.62665 eV ==== 
     psi = 0.146*[#  13]+0.146*[#  14]+0.146*[#  17]+0.146*[#  18]+0.105*[#   8]
          +0.105*[#   9]+0.071*[#  12]+0.071*[#  16]+0.025*[#   6]+0.025*[#   7]
          +0.001*[#  11]+0.001*[#  15]
    |psi|^2 = 0.986
==== e(   9) =    -4.87577 eV ==== 
     psi = 0.129*[#  13]+0.129*[#  14]+0.129*[#  17]+0.129*[#  18]+0.121*[#   6]
          +0.121*[#   7]+0.115*[#   8]+0.115*[#   9]
    |psi|^2 = 0.991
==== e(  10) =    -4.81828 eV ==== 
     psi = 0.169*[#  13]+0.169*[#  14]+0.169*[#  17]+0.169*[#  18]+0.089*[#   5]
          +0.045*[#  12]+0.045*[#  16]+0.042*[#  10]+0.024*[#   6]+0.024*[#   7]
          +0.012*[#  11]+0.012*[#  15]+0.006*[#   8]+0.006*[#   9]
    |psi|^2 = 0.981
==== e(  11) =    -4.03862 eV ==== 
     psi = 0.223*[#   6]+0.223*[#   7]+0.128*[#  13]+0.128*[#  14]+0.128*[#  17]
          +0.128*[#  18]+0.006*[#   8]+0.006*[#   9]+0.003*[#  12]+0.003*[#  16]
          +0.001*[#  11]+0.001*[#  15]
    |psi|^2 = 0.981
==== e(  12) =    -3.52486 eV ==== 
     psi = 0.355*[#  12]+0.355*[#  16]+0.064*[#  13]+0.064*[#  14]+0.064*[#  17]
          +0.064*[#  18]+0.010*[#   8]+0.010*[#   9]
    |psi|^2 = 0.984
==== e(  13) =    -3.14957 eV ==== 
     psi = 0.224*[#   5]+0.188*[#   8]+0.188*[#   9]+0.179*[#   6]+0.179*[#   7]
          +0.012*[#  10]+0.004*[#  12]+0.004*[#  16]+0.002*[#  11]+0.002*[#  15]
          
    |psi|^2 = 0.986
==== e(  14) =    -2.75753 eV ==== 
     psi = 0.267*[#   8]+0.267*[#   9]+0.077*[#   6]+0.077*[#   7]+0.066*[#  13]
          +0.066*[#  14]+0.066*[#  17]+0.066*[#  18]+0.016*[#  12]+0.016*[#  16]
          
    |psi|^2 = 0.987
==== e(  15) =    -2.74670 eV ==== 
     psi = 0.627*[#   5]+0.077*[#   8]+0.077*[#   9]+0.032*[#  12]+0.032*[#  16]
          +0.026*[#   6]+0.026*[#   7]+0.023*[#  13]+0.023*[#  14]+0.023*[#  17]
          +0.023*[#  18]
    |psi|^2 = 0.992
==== e(  16) =    -1.91321 eV ==== 
     psi = 0.166*[#   6]+0.166*[#   7]+0.103*[#   8]+0.103*[#   9]+0.083*[#  13]
          +0.083*[#  14]+0.083*[#  17]+0.083*[#  18]+0.052*[#  12]+0.052*[#  16]
          +0.007*[#  11]+0.007*[#  15]
    |psi|^2 = 0.990
==== e(  17) =    -1.75389 eV ==== 
     psi = 0.142*[#   6]+0.142*[#   7]+0.117*[#  13]+0.117*[#  14]+0.117*[#  17]
          +0.117*[#  18]+0.106*[#   8]+0.106*[#   9]+0.005*[#   5]+0.004*[#  12]
          +0.004*[#  16]+0.001*[#  11]+0.001*[#  15]
    |psi|^2 = 0.980
==== e(  18) =     2.84181 eV ==== 
     psi = 0.421*[#  10]+0.037*[#  12]+0.037*[#  16]+0.029*[#  11]+0.029*[#  15]
          +0.028*[#  13]+0.028*[#  14]+0.028*[#  17]+0.028*[#  18]+0.001*[#   8]
          +0.001*[#   9]+0.001*[#   1]
    |psi|^2 = 0.668
==== e(  19) =     2.97778 eV ==== 
     psi = 0.029*[#  10]+0.008*[#  13]+0.008*[#  14]+0.008*[#  17]+0.008*[#  18]
          +0.003*[#   5]+0.002*[#  12]+0.002*[#  16]+0.002*[#  11]+0.002*[#  15]
          +0.001*[#   8]+0.001*[#   9]
    |psi|^2 = 0.075
==== e(  20) =     3.09320 eV ==== 
     psi = 0.002*[#   8]+0.002*[#   9]
    |psi|^2 = 0.008

 k =   0.1250000000  0.2886751346  0.0000000000
==== e(   1) =  -104.63489 eV ==== 
     psi = 0.995*[#   1]+0.001*[#  12]+0.001*[#  16]
    |psi|^2 = 1.000
==== e(   2) =   -65.02899 eV ==== 
     psi = 0.999*[#   2]
    |psi|^2 = 1.000
==== e(   3) =   -65.02788 eV ==== 
     psi = 0.499*[#   3]+0.499*[#   4]
    |psi|^2 = 1.000
==== e(   4) =   -65.02768 eV ==== 
     psi = 0.500*[#   3]+0.500*[#   4]
    |psi|^2 = 1.000
==== e(   5) =   -15.24280 eV ==== 
     psi = 0.414*[#  11]+0.414*[#  15]+0.144*[#  10]+0.005*[#  12]+0.005*[#  16]
          +0.004*[#  13]+0.004*[#  14]+0.004*[#  17]+0.004*[#  18]
    |psi|^2 = 0.999
==== e(   6) =   -14.57450 eV ==== 
     psi = 0.488*[#  11]+0.488*[#  15]+0.004*[#   6]+0.004*[#   7]+0.002*[#  13]
          +0.002*[#  14]+0.002*[#  17]+0.002*[#  18]+0.002*[#   8]+0.002*[#   9]
          
    |psi|^2 = 0.999
==== e(   7) =    -6.42828 eV ==== 
     psi = 0.264*[#  12]+0.264*[#  16]+0.149*[#  10]+0.049*[#  13]+0.049*[#  14]
          +0.049*[#  17]+0.049*[#  18]+0.045*[#  11]+0.045*[#  15]+0.017*[#   5]
          +0.005*[#   6]+0.005*[#   7]+0.002*[#   1]+0.002*[#   8]+0.002*[#   9]
          
    |psi|^2 = 0.995
==== e(   8) =    -5.91390 eV ==== 
     psi = 0.164*[#  13]+0.164*[#  14]+0.164*[#  17]+0.164*[#  18]+0.076*[#   8]
          +0.076*[#   9]+0.076*[#  12]+0.076*[#  16]+0.009*[#   6]+0.009*[#   7]
          +0.002*[#   5]+0.001*[#  11]+0.001*[#  15]
    |psi|^2 = 0.984
==== e(   9) =    -5.20592 eV ==== 
     psi = 0.133*[#  13]+0.133*[#  14]+0.133*[#  17]+0.133*[#  18]+0.131*[#  12]
          +0.131*[#  16]+0.094*[#   5]+0.029*[#   6]+0.029*[#   7]+0.022*[#  10]
          +0.004*[#  11]+0.004*[#  15]+0.003*[#   8]+0.003*[#   9]
    |psi|^2 = 0.983
==== e(  10) =    -4.93160 eV ==== 
     psi = 0.143*[#  13]+0.143*[#  14]+0.143*[#  17]+0.143*[#  18]+0.116*[#   6]
          +0.116*[#   7]+0.088*[#   8]+0.088*[#   9]+0.005*[#  10]
    |psi|^2 = 0.989
==== e(  11) =    -4.28744 eV ==== 
     psi = 0.200*[#   6]+0.200*[#   7]+0.141*[#  13]+0.141*[#  14]+0.141*[#  17]
          +0.141*[#  18]+0.005*[#  12]+0.005*[#  16]+0.001*[#   8]+0.001*[#   9]
          +0.001*[#  11]+0.001*[#  15]
    |psi|^2 = 0.982
==== e(  12) =    -3.70233 eV ==== 
     psi = 0.297*[#  12]+0.297*[#  16]+0.075*[#  13]+0.075*[#  14]+0.075*[#  17]
          +0.075*[#  18]+0.042*[#   8]+0.042*[#   9]+0.002*[#   6]+0.002*[#   7]
          +0.001*[#  11]+0.001*[#  15]
    |psi|^2 = 0.985
==== e(  13) =    -3.14435 eV ==== 
     psi = 0.218*[#   8]+0.218*[#   9]+0.205*[#   5]+0.158*[#   6]+0.158*[#   7]
          +0.011*[#  10]+0.006*[#  12]+0.006*[#  16]+0.002*[#  11]+0.002*[#  15]
          
    |psi|^2 = 0.986
==== e(  14) =    -2.80094 eV ==== 
     psi = 0.565*[#   5]+0.125*[#   8]+0.125*[#   9]+0.023*[#  12]+0.023*[#  16]
          +0.021*[#  13]+0.021*[#  14]+0.021*[#  17]+0.021*[#  18]+0.021*[#   6]
          +0.021*[#   7]+0.001*[#  10]
    |psi|^2 = 0.991
==== e(  15) =    -2.76960 eV ==== 
     psi = 0.258*[#   8]+0.258*[#   9]+0.087*[#   5]+0.079*[#   6]+0.079*[#   7]
          +0.040*[#  13]+0.040*[#  14]+0.040*[#  17]+0.040*[#  18]+0.033*[#  12]
          +0.033*[#  16]
    |psi|^2 = 0.988
==== e(  16) =    -1.96930 eV ==== 
     psi = 0.180*[#   6]+0.180*[#   7]+0.096*[#   8]+0.096*[#   9]+0.073*[#  13]
          +0.073*[#  14]+0.073*[#  17]+0.073*[#  18]+0.056*[#  12]+0.056*[#  16]
          +0.017*[#   5]+0.005*[#  11]+0.005*[#  15]
    |psi|^2 = 0.983
==== e(  17) =    -1.79605 eV ==== 
     psi = 0.186*[#   6]+0.186*[#   7]+0.091*[#  13]+0.091*[#  14]+0.091*[#  17]
          +0.091*[#  18]+0.072*[#   8]+0.072*[#   9]+0.048*[#  12]+0.048*[#  16]
          +0.004*[#  11]+0.004*[#  15]
    |psi|^2 = 0.988
==== e(  18) =     2.56649 eV ==== 
     psi = 0.361*[#  10]+0.037*[#  13]+0.037*[#  14]+0.037*[#  17]+0.037*[#  18]
          +0.024*[#  12]+0.024*[#  16]+0.017*[#  11]+0.017*[#  15]+0.003*[#   8]
          +0.003*[#   9]+0.001*[#   1]
    |psi|^2 = 0.599
==== e(  19) =     3.21097 eV ==== 
     psi = 0.067*[#  10]+0.006*[#  12]+0.006*[#  16]+0.004*[#  13]+0.004*[#  14]
          +0.004*[#  17]+0.004*[#  18]+0.004*[#  11]+0.004*[#  15]+0.002*[#   8]
          +0.002*[#   9]
    |psi|^2 = 0.109
==== e(  20) =     3.31459 eV ==== 
     psi = 0.036*[#  10]+0.003*[#  12]+0.003*[#  16]+0.002*[#  11]+0.002*[#  15]
          +0.002*[#  13]+0.002*[#  14]+0.002*[#  17]+0.002*[#  18]
    |psi|^2 = 0.055

 k =   0.1250000000  0.3608439182  0.0000000000
==== e(   1) =  -104.63489 eV ==== 
     psi = 0.995*[#   1]
    |psi|^2 = 1.000
==== e(   2) =   -65.02897 eV ==== 
     psi = 0.999*[#   2]
    |psi|^2 = 1.000
==== e(   3) =   -65.02796 eV ==== 
     psi = 0.499*[#   3]+0.499*[#   4]
    |psi|^2 = 1.000
==== e(   4) =   -65.02771 eV ==== 
     psi = 0.500*[#   3]+0.500*[#   4]
    |psi|^2 = 1.000
==== e(   5) =   -15.04889 eV ==== 
     psi = 0.434*[#  11]+0.434*[#  15]+0.102*[#  10]+0.005*[#  13]+0.005*[#  14]
          +0.005*[#  17]+0.005*[#  18]+0.004*[#  12]+0.004*[#  16]
    |psi|^2 = 0.999
==== e(   6) =   -14.50171 eV ==== 
     psi = 0.488*[#  11]+0.488*[#  15]+0.005*[#   6]+0.005*[#   7]+0.003*[#   8]
          +0.003*[#   9]+0.001*[#  13]+0.001*[#  14]+0.001*[#  17]+0.001*[#  18]
          
    |psi|^2 = 0.999
==== e(   7) =    -6.63374 eV ==== 
     psi = 0.178*[#  10]+0.121*[#  13]+0.121*[#  14]+0.121*[#  17]+0.121*[#  18]
          +0.110*[#  12]+0.110*[#  16]+0.037*[#  11]+0.037*[#  15]+0.008*[#   6]
          +0.008*[#   7]+0.008*[#   8]+0.008*[#   9]+0.002*[#   1]
    |psi|^2 = 0.993
==== e(   8) =    -6.16412 eV ==== 
     psi = 0.164*[#  13]+0.164*[#  14]+0.164*[#  17]+0.164*[#  18]+0.108*[#  12]
          +0.108*[#  16]+0.041*[#   8]+0.041*[#   9]+0.006*[#   6]+0.006*[#   7]
          +0.004*[#  10]+0.004*[#  11]+0.004*[#  15]+0.004*[#   5]
    |psi|^2 = 0.984
==== e(   9) =    -5.31462 eV ==== 
     psi = 0.247*[#  12]+0.247*[#  16]+0.090*[#   5]+0.084*[#  13]+0.084*[#  14]
          +0.084*[#  17]+0.084*[#  18]+0.019*[#   6]+0.019*[#   7]+0.011*[#   8]
          +0.011*[#   9]+0.004*[#  10]
    |psi|^2 = 0.983
==== e(  10) =    -4.98623 eV ==== 
     psi = 0.148*[#  13]+0.148*[#  14]+0.148*[#  17]+0.148*[#  18]+0.120*[#   6]
          +0.120*[#   7]+0.063*[#   8]+0.063*[#   9]+0.010*[#  12]+0.010*[#  16]
          +0.010*[#  10]
    |psi|^2 = 0.990
==== e(  11) =    -4.49549 eV ==== 
     psi = 0.168*[#   6]+0.168*[#   7]+0.158*[#  13]+0.158*[#  14]+0.158*[#  17]
          +0.158*[#  18]+0.003*[#  10]+0.003*[#  12]+0.003*[#  16]+0.001*[#   5]
          +0.001*[#  11]+0.001*[#  15]
    |psi|^2 = 0.982
==== e(  12) =    -3.96684 eV ==== 
     psi = 0.271*[#  12]+0.271*[#  16]+0.069*[#   8]+0.069*[#   9]+0.069*[#  13]
          +0.069*[#  14]+0.069*[#  17]+0.069*[#  18]+0.014*[#   6]+0.014*[#   7]
          +0.002*[#  11]+0.002*[#  15]
    |psi|^2 = 0.988
==== e(  13) =    -3.13635 eV ==== 
     psi = 0.225*[#   8]+0.225*[#   9]+0.207*[#   5]+0.145*[#   6]+0.145*[#   7]
          +0.010*[#  12]+0.010*[#  16]+0.009*[#  10]+0.002*[#  13]+0.002*[#  14]
          +0.002*[#  17]+0.002*[#  18]+0.001*[#  11]+0.001*[#  15]
    |psi|^2 = 0.985
==== e(  14) =    -2.89234 eV ==== 
     psi = 0.513*[#   5]+0.172*[#   8]+0.172*[#   9]+0.020*[#   6]+0.020*[#   7]
          +0.017*[#  13]+0.017*[#  14]+0.017*[#  17]+0.017*[#  18]+0.012*[#  12]
          +0.012*[#  16]+0.003*[#  10]
    |psi|^2 = 0.991
==== e(  15) =    -2.79504 eV ==== 
     psi = 0.249*[#   8]+0.249*[#   9]+0.139*[#   5]+0.089*[#   6]+0.089*[#   7]
          +0.032*[#  12]+0.032*[#  16]+0.027*[#  13]+0.027*[#  14]+0.027*[#  17]
          +0.027*[#  18]+0.001*[#  10]
    |psi|^2 = 0.989
==== e(  16) =    -1.99782 eV ==== 
     psi = 0.201*[#   6]+0.201*[#   7]+0.075*[#   8]+0.075*[#   9]+0.067*[#  13]
          +0.067*[#  14]+0.067*[#  17]+0.067*[#  18]+0.063*[#  12]+0.063*[#  16]
          +0.032*[#   5]+0.003*[#  11]+0.003*[#  15]+0.002*[#  10]
    |psi|^2 = 0.983
==== e(  17) =    -1.72343 eV ==== 
     psi = 0.194*[#   6]+0.194*[#   7]+0.086*[#  12]+0.086*[#  16]+0.071*[#  13]
          +0.071*[#  14]+0.071*[#  17]+0.071*[#  18]+0.068*[#   8]+0.068*[#   9]
          +0.005*[#  11]+0.005*[#  15]+0.001*[#   5]
    |psi|^2 = 0.993
==== e(  18) =     2.15560 eV ==== 
     psi = 0.401*[#  10]+0.042*[#  13]+0.042*[#  14]+0.042*[#  17]+0.042*[#  18]
[...]
    |psi|^2 = 0.993
==== e(  13) =    -3.10106 eV ==== 
     psi = 0.878*[#   5]+0.039*[#   6]+0.039*[#   7]+0.005*[#  10]+0.004*[#  13]
          +0.004*[#  14]+0.004*[#  17]+0.004*[#  18]+0.004*[#  12]+0.004*[#  16]
          
    |psi|^2 = 0.987
==== e(  14) =    -2.97737 eV ==== 
     psi = 0.411*[#   8]+0.411*[#   9]+0.063*[#   6]+0.063*[#   7]+0.018*[#  12]
          +0.018*[#  16]+0.004*[#   5]+0.002*[#  10]
    |psi|^2 = 0.993
==== e(  15) =    -2.88388 eV ==== 
     psi = 0.290*[#   8]+0.290*[#   9]+0.140*[#   6]+0.140*[#   7]+0.038*[#   5]
          +0.016*[#  12]+0.016*[#  16]+0.014*[#  13]+0.014*[#  14]+0.014*[#  17]
          +0.014*[#  18]+0.006*[#  10]
    |psi|^2 = 0.991
==== e(  16) =    -2.00096 eV ==== 
     psi = 0.269*[#   6]+0.269*[#   7]+0.074*[#  13]+0.074*[#  14]+0.074*[#  17]
          +0.074*[#  18]+0.039*[#  12]+0.039*[#  16]+0.029*[#   8]+0.029*[#   9]
          +0.006*[#   5]+0.003*[#  11]+0.003*[#  15]
    |psi|^2 = 0.984
==== e(  17) =    -1.75826 eV ==== 
     psi = 0.179*[#   6]+0.179*[#   7]+0.147*[#  12]+0.147*[#  16]+0.092*[#   8]
          +0.092*[#   9]+0.029*[#  13]+0.029*[#  14]+0.029*[#  17]+0.029*[#  18]
          +0.024*[#   5]+0.005*[#  11]+0.005*[#  15]+0.004*[#  10]
    |psi|^2 = 0.990
==== e(  18) =     1.87462 eV ==== 
     psi = 0.538*[#  10]+0.056*[#  13]+0.056*[#  14]+0.056*[#  17]+0.056*[#  18]
          +0.012*[#  12]+0.012*[#  16]+0.004*[#  11]+0.004*[#  15]+0.003*[#   5]
          +0.003*[#   8]+0.003*[#   9]+0.003*[#   1]
    |psi|^2 = 0.806
==== e(  19) =     3.91383 eV ==== 
     psi = 0.009*[#  10]+0.004*[#  12]+0.004*[#  16]+0.002*[#  13]+0.002*[#  14]
          +0.002*[#  17]+0.002*[#  18]
    |psi|^2 = 0.029
==== e(  20) =     4.34528 eV ==== 
     psi = 0.003*[#  12]+0.003*[#  16]+0.002*[#  13]+0.002*[#  14]+0.002*[#  17]
          +0.002*[#  18]
    |psi|^2 = 0.016

 k =   0.2500000000  0.4330127019  0.0000000000
==== e(   1) =  -104.63488 eV ==== 
     psi = 0.995*[#   1]+0.001*[#  13]+0.001*[#  14]+0.001*[#  17]+0.001*[#  18]
          
    |psi|^2 = 1.000
==== e(   2) =   -65.02895 eV ==== 
     psi = 0.999*[#   2]
    |psi|^2 = 1.000
==== e(   3) =   -65.02802 eV ==== 
     psi = 0.499*[#   3]+0.499*[#   4]
    |psi|^2 = 1.000
==== e(   4) =   -65.02782 eV ==== 
     psi = 0.499*[#   3]+0.499*[#   4]
    |psi|^2 = 1.000
==== e(   5) =   -14.72535 eV ==== 
     psi = 0.468*[#  11]+0.468*[#  15]+0.037*[#  10]+0.004*[#  13]+0.004*[#  14]
          +0.004*[#  17]+0.004*[#  18]+0.003*[#  12]+0.003*[#  16]+0.002*[#   6]
          +0.002*[#   7]+0.001*[#   8]+0.001*[#   9]
    |psi|^2 = 0.999
==== e(   6) =   -14.41918 eV ==== 
     psi = 0.490*[#  11]+0.490*[#  15]+0.006*[#   6]+0.006*[#   7]+0.003*[#   8]
          +0.003*[#   9]
    |psi|^2 = 0.999
==== e(   7) =    -6.91441 eV ==== 
     psi = 0.223*[#  10]+0.158*[#  13]+0.158*[#  14]+0.158*[#  17]+0.158*[#  18]
          +0.038*[#  12]+0.038*[#  16]+0.019*[#  11]+0.019*[#  15]+0.011*[#   6]
          +0.011*[#   7]+0.002*[#   5]+0.002*[#   1]
    |psi|^2 = 0.996
==== e(   8) =    -6.34102 eV ==== 
     psi = 0.195*[#  13]+0.195*[#  14]+0.195*[#  17]+0.195*[#  18]+0.068*[#  12]
          +0.068*[#  16]+0.029*[#   8]+0.029*[#   9]+0.005*[#   6]+0.005*[#   7]
          
    |psi|^2 = 0.982
==== e(   9) =    -5.68305 eV ==== 
     psi = 0.160*[#  13]+0.160*[#  14]+0.160*[#  17]+0.160*[#  18]+0.111*[#  12]
          +0.111*[#  16]+0.035*[#   6]+0.035*[#   7]+0.025*[#  10]+0.018*[#   5]
          
    |psi|^2 = 0.979
==== e(  10) =    -4.97639 eV ==== 
     psi = 0.192*[#  13]+0.192*[#  14]+0.192*[#  17]+0.192*[#  18]+0.103*[#   6]
          +0.103*[#   7]+0.002*[#   8]+0.002*[#   9]
    |psi|^2 = 0.981
==== e(  11) =    -4.96281 eV ==== 
     psi = 0.258*[#  12]+0.258*[#  16]+0.086*[#   6]+0.086*[#   7]+0.045*[#   8]
          +0.045*[#   9]+0.043*[#  13]+0.043*[#  14]+0.043*[#  17]+0.043*[#  18]
          +0.033*[#   5]+0.006*[#  10]+0.002*[#  11]+0.002*[#  15]
    |psi|^2 = 0.995
==== e(  12) =    -4.36971 eV ==== 
     psi = 0.259*[#  12]+0.259*[#  16]+0.088*[#   8]+0.088*[#   9]+0.052*[#   6]
          +0.052*[#   7]+0.046*[#  13]+0.046*[#  14]+0.046*[#  17]+0.046*[#  18]
          +0.004*[#  11]+0.004*[#  15]
    |psi|^2 = 0.992
==== e(  13) =    -3.04472 eV ==== 
     psi = 0.816*[#   5]+0.044*[#   6]+0.044*[#   7]+0.017*[#  12]+0.017*[#  16]
          +0.016*[#   8]+0.016*[#   9]+0.004*[#  13]+0.004*[#  14]+0.004*[#  17]
          +0.004*[#  18]+0.002*[#  10]
    |psi|^2 = 0.987
==== e(  14) =    -3.01357 eV ==== 
     psi = 0.396*[#   8]+0.396*[#   9]+0.085*[#   5]+0.047*[#   6]+0.047*[#   7]
          +0.011*[#  10]+0.006*[#  12]+0.006*[#  16]
    |psi|^2 = 0.994
==== e(  15) =    -2.81126 eV ==== 
     psi = 0.287*[#   8]+0.287*[#   9]+0.140*[#   6]+0.140*[#   7]+0.026*[#  12]
          +0.026*[#  16]+0.021*[#  13]+0.021*[#  14]+0.021*[#  17]+0.021*[#  18]
          
    |psi|^2 = 0.990
==== e(  16) =    -2.14434 eV ==== 
     psi = 0.269*[#   6]+0.269*[#   7]+0.062*[#  13]+0.062*[#  14]+0.062*[#  17]
          +0.062*[#  18]+0.044*[#  12]+0.044*[#  16]+0.035*[#   8]+0.035*[#   9]
          +0.034*[#   5]+0.003*[#  10]+0.003*[#  11]+0.003*[#  15]
    |psi|^2 = 0.984
==== e(  17) =    -1.72537 eV ==== 
     psi = 0.190*[#   6]+0.190*[#   7]+0.142*[#  12]+0.142*[#  16]+0.085*[#   8]
          +0.085*[#   9]+0.037*[#  13]+0.037*[#  14]+0.037*[#  17]+0.037*[#  18]
          +0.006*[#  11]+0.006*[#  15]
    |psi|^2 = 0.992
==== e(  18) =     2.22168 eV ==== 
     psi = 0.517*[#  10]+0.058*[#  13]+0.058*[#  14]+0.058*[#  17]+0.058*[#  18]
          +0.012*[#  12]+0.012*[#  16]+0.005*[#  11]+0.005*[#  15]+0.003*[#   5]
          +0.003*[#   1]+0.002*[#   8]+0.002*[#   9]
    |psi|^2 = 0.791
==== e(  19) =     3.43319 eV ==== 
     psi = 0.002*[#  12]+0.002*[#  16]+0.002*[#  13]+0.002*[#  14]+0.002*[#  17]
          +0.002*[#  18]
    |psi|^2 = 0.014
==== e(  20) =     4.68853 eV ==== 
     psi = 0.062*[#  10]+0.005*[#  12]+0.005*[#  16]+0.003*[#  13]+0.003*[#  14]
          +0.003*[#  17]+0.003*[#  18]+0.001*[#  11]+0.001*[#  15]
    |psi|^2 = 0.085

 k =   0.2500000000  0.5051814855  0.0000000000
==== e(   1) =  -104.63488 eV ==== 
     psi = 0.995*[#   1]+0.001*[#  13]+0.001*[#  14]+0.001*[#  17]+0.001*[#  18]
          
    |psi|^2 = 1.000
==== e(   2) =   -65.02894 eV ==== 
     psi = 0.999*[#   2]
    |psi|^2 = 1.000
==== e(   3) =   -65.02803 eV ==== 
     psi = 0.499*[#   3]+0.499*[#   4]
    |psi|^2 = 1.000
==== e(   4) =   -65.02786 eV ==== 
     psi = 0.499*[#   3]+0.499*[#   4]
    |psi|^2 = 1.000
==== e(   5) =   -14.59437 eV ==== 
     psi = 0.481*[#  11]+0.481*[#  15]+0.013*[#  10]+0.003*[#  12]+0.002*[#  13]
          +0.002*[#  14]+0.003*[#  16]+0.002*[#  17]+0.002*[#  18]+0.002*[#   6]
          +0.002*[#   7]+0.002*[#   8]+0.002*[#   9]
    |psi|^2 = 0.998
==== e(   6) =   -14.41734 eV ==== 
     psi = 0.489*[#  11]+0.489*[#  15]+0.005*[#   6]+0.005*[#   7]+0.003*[#   8]
          +0.003*[#   9]+0.001*[#  10]
    |psi|^2 = 0.999
==== e(   7) =    -7.02035 eV ==== 
     psi = 0.237*[#  10]+0.169*[#  13]+0.169*[#  14]+0.169*[#  17]+0.169*[#  18]
          +0.021*[#  12]+0.021*[#  16]+0.008*[#   6]+0.008*[#   7]+0.007*[#  11]
          +0.007*[#  15]+0.004*[#   5]+0.002*[#   1]+0.002*[#   8]+0.002*[#   9]
          
    |psi|^2 = 0.996
==== e(   8) =    -6.33168 eV ==== 
     psi = 0.190*[#  13]+0.190*[#  14]+0.190*[#  17]+0.190*[#  18]+0.077*[#  12]
          +0.077*[#  16]+0.018*[#   6]+0.018*[#   7]+0.014*[#   8]+0.014*[#   9]
          +0.001*[#  11]+0.001*[#  15]+0.001*[#  10]
    |psi|^2 = 0.983
==== e(   9) =    -5.90894 eV ==== 
     psi = 0.175*[#  13]+0.175*[#  14]+0.175*[#  17]+0.175*[#  18]+0.083*[#  12]
          +0.083*[#  16]+0.034*[#   6]+0.034*[#   7]+0.030*[#  10]+0.008*[#   5]
          +0.004*[#   8]+0.004*[#   9]
    |psi|^2 = 0.982
==== e(  10) =    -5.14141 eV ==== 
     psi = 0.215*[#  13]+0.215*[#  14]+0.215*[#  17]+0.215*[#  18]+0.059*[#   6]
          +0.059*[#   7]+0.002*[#   8]+0.002*[#   9]
    |psi|^2 = 0.980
==== e(  11) =    -4.81747 eV ==== 
     psi = 0.287*[#  12]+0.287*[#  16]+0.083*[#   6]+0.083*[#   7]+0.058*[#   8]
          +0.058*[#   9]+0.028*[#  13]+0.028*[#  14]+0.028*[#  17]+0.028*[#  18]
          +0.017*[#   5]+0.003*[#  11]+0.003*[#  15]+0.003*[#  10]
    |psi|^2 = 0.995
==== e(  12) =    -4.53881 eV ==== 
     psi = 0.264*[#  12]+0.264*[#  16]+0.088*[#   8]+0.088*[#   9]+0.080*[#   6]
          +0.080*[#   7]+0.031*[#  13]+0.031*[#  14]+0.031*[#  17]+0.031*[#  18]
          +0.004*[#  11]+0.004*[#  15]
    |psi|^2 = 0.995
==== e(  13) =    -3.08727 eV ==== 
     psi = 0.934*[#   5]+0.011*[#   6]+0.011*[#   7]+0.008*[#  10]+0.004*[#   8]
          +0.004*[#   9]+0.003*[#  12]+0.003*[#  16]+0.002*[#  13]+0.002*[#  14]
          +0.002*[#  17]+0.002*[#  18]
    |psi|^2 = 0.988
==== e(  14) =    -2.95990 eV ==== 
     psi = 0.390*[#   8]+0.390*[#   9]+0.082*[#   6]+0.082*[#   7]+0.020*[#  12]
          +0.020*[#  16]+0.003*[#  10]+0.001*[#  13]+0.001*[#  14]+0.001*[#  17]
          +0.001*[#  18]
    |psi|^2 = 0.993
==== e(  15) =    -2.84218 eV ==== 
     psi = 0.299*[#   8]+0.299*[#   9]+0.143*[#   6]+0.143*[#   7]+0.022*[#  12]
          +0.022*[#  16]+0.015*[#  13]+0.015*[#  14]+0.015*[#  17]+0.015*[#  18]
          +0.003*[#   5]
    |psi|^2 = 0.991
==== e(  16) =    -2.10287 eV ==== 
     psi = 0.267*[#   6]+0.267*[#   7]+0.060*[#  12]+0.060*[#  16]+0.057*[#  13]
          +0.057*[#  14]+0.057*[#  17]+0.057*[#  18]+0.040*[#   8]+0.040*[#   9]
          +0.016*[#   5]+0.003*[#  11]+0.003*[#  15]+0.002*[#  10]
    |psi|^2 = 0.984
==== e(  17) =    -1.79658 eV ==== 
     psi = 0.196*[#   6]+0.196*[#   7]+0.138*[#  12]+0.138*[#  16]+0.085*[#   8]
          +0.085*[#   9]+0.035*[#  13]+0.035*[#  14]+0.035*[#  17]+0.035*[#  18]
          +0.005*[#  11]+0.005*[#  15]+0.003*[#   5]
    |psi|^2 = 0.988
==== e(  18) =     2.09573 eV ==== 
     psi = 0.530*[#  10]+0.060*[#  13]+0.060*[#  14]+0.060*[#  17]+0.060*[#  18]
          +0.006*[#  12]+0.006*[#  16]+0.005*[#   5]+0.003*[#   1]+0.002*[#  11]
          +0.002*[#  15]+0.001*[#   8]+0.001*[#   9]
    |psi|^2 = 0.796
==== e(  19) =     3.72710 eV ==== 
     psi = 0.004*[#  12]+0.004*[#  16]+0.002*[#  10]+0.002*[#   6]+0.002*[#   7]
          +0.002*[#  13]+0.002*[#  14]+0.002*[#  17]+0.002*[#  18]
    |psi|^2 = 0.020
==== e(  20) =     4.62740 eV ==== 
     psi = 0.007*[#  12]+0.007*[#  16]+0.004*[#  10]+0.001*[#   6]+0.001*[#   7]
          
    |psi|^2 = 0.023

 k =   0.2500000000  0.5773502692  0.0000000000
==== e(   1) =  -104.63488 eV ==== 
     psi = 0.995*[#   1]+0.001*[#  13]+0.001*[#  14]+0.001*[#  17]+0.001*[#  18]
          
    |psi|^2 = 1.000
==== e(   2) =   -65.02894 eV ==== 
     psi = 0.999*[#   2]
    |psi|^2 = 1.000
==== e(   3) =   -65.02803 eV ==== 
     psi = 0.499*[#   3]+0.499*[#   4]
    |psi|^2 = 1.000
==== e(   4) =   -65.02788 eV ==== 
     psi = 0.499*[#   3]+0.499*[#   4]
    |psi|^2 = 1.000
==== e(   5) =   -14.53115 eV ==== 
     psi = 0.489*[#  11]+0.489*[#  15]+0.003*[#   6]+0.003*[#   7]+0.002*[#  12]
          +0.002*[#  16]+0.002*[#   8]+0.002*[#   9]+0.002*[#  13]+0.002*[#  14]
          +0.002*[#  17]+0.002*[#  18]
    |psi|^2 = 0.998
==== e(   6) =   -14.43285 eV ==== 
     psi = 0.486*[#  11]+0.486*[#  15]+0.006*[#  10]+0.005*[#   6]+0.005*[#   7]
          +0.003*[#   8]+0.003*[#   9]
    |psi|^2 = 0.999
==== e(   7) =    -7.06214 eV ==== 
     psi = 0.242*[#  10]+0.174*[#  13]+0.174*[#  14]+0.174*[#  17]+0.174*[#  18]
          +0.015*[#  12]+0.015*[#  16]+0.007*[#   6]+0.007*[#   7]+0.005*[#   5]
          +0.003*[#  11]+0.003*[#  15]+0.002*[#   8]+0.002*[#   9]+0.002*[#   1]
          
    |psi|^2 = 0.996
==== e(   8) =    -6.29637 eV ==== 
     psi = 0.183*[#  13]+0.183*[#  14]+0.183*[#  17]+0.183*[#  18]+0.090*[#  12]
          +0.090*[#  16]+0.031*[#   6]+0.031*[#   7]+0.003*[#  11]+0.003*[#  15]
          +0.002*[#   8]+0.002*[#   9]
    |psi|^2 = 0.985
==== e(   9) =    -6.01402 eV ==== 
     psi = 0.184*[#  13]+0.184*[#  14]+0.184*[#  17]+0.184*[#  18]+0.066*[#  12]
          +0.066*[#  16]+0.034*[#  10]+0.025*[#   6]+0.025*[#   7]+0.012*[#   8]
          +0.012*[#   9]+0.005*[#   5]
    |psi|^2 = 0.981
==== e(  10) =    -5.20690 eV ==== 
     psi = 0.222*[#  13]+0.222*[#  14]+0.222*[#  17]+0.222*[#  18]+0.042*[#   6]
          +0.042*[#   7]+0.002*[#   8]+0.002*[#   9]+0.001*[#  12]+0.001*[#  16]
          
    |psi|^2 = 0.980
==== e(  11) =    -4.70203 eV ==== 
     psi = 0.306*[#  12]+0.306*[#  16]+0.071*[#   6]+0.071*[#   7]+0.062*[#   8]
          +0.062*[#   9]+0.027*[#  13]+0.027*[#  14]+0.027*[#  17]+0.027*[#  18]
          +0.003*[#  11]+0.003*[#  15]
    |psi|^2 = 0.993
==== e(  12) =    -4.65500 eV ==== 
     psi = 0.253*[#  12]+0.253*[#  16]+0.103*[#   6]+0.103*[#   7]+0.088*[#   8]
          +0.088*[#   9]+0.022*[#  13]+0.022*[#  14]+0.022*[#  17]+0.022*[#  18]
          +0.009*[#   5]+0.005*[#  11]+0.005*[#  15]+0.001*[#  10]
    |psi|^2 = 0.997
==== e(  13) =    -3.10448 eV ==== 
     psi = 0.951*[#   5]+0.009*[#   6]+0.009*[#   7]+0.009*[#  10]+0.001*[#  13]
          +0.001*[#  14]+0.001*[#  17]+0.001*[#  18]+0.001*[#  12]+0.001*[#  16]
          
    |psi|^2 = 0.988
==== e(  14) =    -2.92290 eV ==== 
     psi = 0.385*[#   8]+0.385*[#   9]+0.082*[#   6]+0.082*[#   7]+0.025*[#  12]
          +0.025*[#  16]+0.002*[#  13]+0.002*[#  14]+0.002*[#  17]+0.002*[#  18]
          
    |psi|^2 = 0.993
==== e(  15) =    -2.86871 eV ==== 
     psi = 0.302*[#   8]+0.302*[#   9]+0.148*[#   6]+0.148*[#   7]+0.018*[#  12]
          +0.018*[#  16]+0.012*[#  13]+0.012*[#  14]+0.012*[#  17]+0.012*[#  18]
          +0.004*[#   5]+0.002*[#  10]
    |psi|^2 = 0.991
==== e(  16) =    -2.05607 eV ==== 
     psi = 0.266*[#   6]+0.266*[#   7]+0.066*[#  12]+0.066*[#  16]+0.057*[#  13]
          +0.057*[#  14]+0.057*[#  17]+0.057*[#  18]+0.042*[#   8]+0.042*[#   9]
          +0.003*[#  11]+0.003*[#  15]
    |psi|^2 = 0.983
==== e(  17) =    -1.85458 eV ==== 
     psi = 0.197*[#   6]+0.197*[#   7]+0.135*[#  12]+0.135*[#  16]+0.085*[#   8]
          +0.085*[#   9]+0.032*[#  13]+0.032*[#  14]+0.032*[#  17]+0.032*[#  18]
          +0.011*[#   5]+0.005*[#  11]+0.005*[#  15]+0.002*[#  10]
    |psi|^2 = 0.987
==== e(  18) =     2.03915 eV ==== 
     psi = 0.535*[#  10]+0.060*[#  13]+0.060*[#  14]+0.060*[#  17]+0.060*[#  18]
          +0.006*[#   5]+0.004*[#  12]+0.004*[#  16]+0.003*[#   1]+0.001*[#  11]
          +0.001*[#  15]
    |psi|^2 = 0.798
==== e(  19) =     4.08399 eV ==== 
     psi = 0.005*[#  12]+0.005*[#  16]+0.002*[#   6]+0.002*[#   7]+0.002*[#  13]
          +0.002*[#  14]+0.002*[#  17]+0.002*[#  18]+0.001*[#  10]
    |psi|^2 = 0.022
==== e(  20) =     4.23756 eV ==== 
     psi = 0.006*[#  12]+0.006*[#  16]+0.001*[#   6]+0.001*[#   7]
    |psi|^2 = 0.017

 k =   0.3125000000  0.5412658774  0.0000000000
==== e(   1) =  -104.63488 eV ==== 
     psi = 0.995*[#   1]+0.001*[#  13]+0.001*[#  14]+0.001*[#  17]+0.001*[#  18]
          
    |psi|^2 = 1.000
==== e(   2) =   -65.02894 eV ==== 
     psi = 0.999*[#   2]
    |psi|^2 = 1.000
==== e(   3) =   -65.02799 eV ==== 
     psi = 0.499*[#   3]+0.499*[#   4]
    |psi|^2 = 1.000
==== e(   4) =   -65.02793 eV ==== 
     psi = 0.499*[#   3]+0.499*[#   4]
    |psi|^2 = 1.000
==== e(   5) =   -14.50164 eV ==== 
     psi = 0.488*[#  11]+0.488*[#  15]+0.003*[#   6]+0.003*[#   7]+0.002*[#   8]
          +0.002*[#   9]+0.002*[#  10]+0.002*[#  12]+0.002*[#  16]+0.002*[#  13]
          +0.002*[#  14]+0.002*[#  17]+0.002*[#  18]
    |psi|^2 = 0.999
==== e(   6) =   -14.43708 eV ==== 
     psi = 0.489*[#  11]+0.489*[#  15]+0.005*[#   6]+0.005*[#   7]+0.003*[#   8]
          +0.003*[#   9]
    |psi|^2 = 0.999
==== e(   7) =    -6.96099 eV ==== 
     psi = 0.272*[#  10]+0.174*[#  13]+0.174*[#  14]+0.174*[#  17]+0.174*[#  18]
          +0.007*[#   5]+0.005*[#  12]+0.005*[#  16]+0.002*[#   6]+0.002*[#   7]
          +0.002*[#   1]+0.001*[#  11]+0.001*[#  15]
    |psi|^2 = 0.996
==== e(   8) =    -6.27916 eV ==== 
     psi = 0.184*[#  13]+0.184*[#  14]+0.184*[#  17]+0.184*[#  18]+0.080*[#  12]
          +0.080*[#  16]+0.033*[#   6]+0.033*[#   7]+0.010*[#   8]+0.010*[#   9]
          +0.001*[#  11]+0.001*[#  15]
    |psi|^2 = 0.983
==== e(   9) =    -6.18169 eV ==== 
     psi = 0.176*[#  13]+0.176*[#  14]+0.176*[#  17]+0.176*[#  18]+0.087*[#  12]
          +0.087*[#  16]+0.041*[#   6]+0.041*[#   7]+0.010*[#  10]+0.003*[#   8]
          +0.003*[#   9]+0.002*[#  11]+0.002*[#  15]+0.001*[#   5]
    |psi|^2 = 0.984
==== e(  10) =    -5.29215 eV ==== 
     psi = 0.239*[#  13]+0.239*[#  14]+0.239*[#  17]+0.239*[#  18]+0.010*[#   6]
          +0.010*[#   7]+0.001*[#   2]
    |psi|^2 = 0.979
==== e(  11) =    -4.72132 eV ==== 
     psi = 0.284*[#  12]+0.284*[#  16]+0.093*[#   6]+0.093*[#   7]+0.073*[#   8]
          +0.073*[#   9]+0.021*[#  13]+0.021*[#  14]+0.021*[#  17]+0.021*[#  18]
          +0.004*[#  11]+0.004*[#  15]+0.003*[#   5]
    |psi|^2 = 0.996
==== e(  12) =    -4.63945 eV ==== 
     psi = 0.268*[#  12]+0.268*[#  16]+0.097*[#   6]+0.097*[#   7]+0.086*[#   8]
          +0.086*[#   9]+0.021*[#  13]+0.021*[#  14]+0.021*[#  17]+0.021*[#  18]
          +0.004*[#  11]+0.004*[#  15]
    |psi|^2 = 0.997
==== e(  13) =    -3.10662 eV ==== 
     psi = 0.970*[#   5]+0.010*[#  10]+0.002*[#   6]+0.002*[#   7]
    |psi|^2 = 0.988
==== e(  14) =    -2.90289 eV ==== 
     psi = 0.359*[#   8]+0.359*[#   9]+0.105*[#   6]+0.105*[#   7]+0.024*[#  12]
          +0.024*[#  16]+0.004*[#  13]+0.004*[#  14]+0.004*[#  17]+0.004*[#  18]
          
    |psi|^2 = 0.993
==== e(  15) =    -2.86101 eV ==== 
     psi = 0.319*[#   8]+0.319*[#   9]+0.135*[#   6]+0.135*[#   7]+0.022*[#  12]
          +0.022*[#  16]+0.010*[#  13]+0.010*[#  14]+0.010*[#  17]+0.010*[#  18]
          
    |psi|^2 = 0.992
==== e(  16) =    -2.04931 eV ==== 
     psi = 0.249*[#   6]+0.249*[#   7]+0.088*[#  12]+0.088*[#  16]+0.056*[#   8]
          +0.056*[#   9]+0.047*[#  13]+0.047*[#  14]+0.047*[#  17]+0.047*[#  18]
          +0.004*[#  11]+0.004*[#  15]+0.003*[#   5]
    |psi|^2 = 0.983
==== e(  17) =    -1.91567 eV ==== 
     psi = 0.216*[#   6]+0.216*[#   7]+0.120*[#  12]+0.120*[#  16]+0.076*[#   8]
          +0.076*[#   9]+0.038*[#  13]+0.038*[#  14]+0.038*[#  17]+0.038*[#  18]
          +0.004*[#  11]+0.004*[#  15]
    |psi|^2 = 0.985
==== e(  18) =     2.08290 eV ==== 
     psi = 0.530*[#  10]+0.062*[#  13]+0.062*[#  14]+0.062*[#  17]+0.062*[#  18]
          +0.008*[#   5]+0.003*[#   1]+0.001*[#  12]+0.001*[#  16]
    |psi|^2 = 0.790
==== e(  19) =     4.03516 eV ==== 
     psi = 0.006*[#  12]+0.006*[#  16]+0.003*[#   6]+0.003*[#   7]
    |psi|^2 = 0.021
==== e(  20) =     4.39769 eV ==== 
     psi = 0.007*[#  12]+0.007*[#  16]+0.003*[#   6]+0.003*[#   7]
    |psi|^2 = 0.022

Lowdin Charges: 

     Atom #   1: total charge =  17.4788, s =  2.6264, 
     Atom #   1: total charge =  17.4788, p =  5.9999, pz=  2.0000, px=  2.0000, py=  2.0000, 
     Atom #   1: total charge =  17.4788, d =  8.8525, dz2=  1.9526, dxz=  1.6439, dyz=  1.6439, dx2-y2=  1.8060, dxy=  1.8060, 
     Atom #   2: total charge =   7.1336, s =  1.9428, 
     Atom #   2: total charge =   7.1336, p =  5.1908, pz=  1.7864, px=  1.7022, py=  1.7022, 
     Atom #   2: total charge =   7.1336, d =  0.0000, dz2=  0.0000, dxz=  0.0000, dyz=  0.0000, dx2-y2=  0.0000, dxy=  0.0000, 
     Atom #   3: total charge =   7.1336, s =  1.9428, 
     Atom #   3: total charge =   7.1336, p =  5.1908, pz=  1.7864, px=  1.7022, py=  1.7022, 
     Atom #   3: total charge =   7.1336, d =  0.0000, dz2=  0.0000, dxz=  0.0000, dyz=  0.0000, dx2-y2=  0.0000, dxy=  0.0000, 
     Spilling Parameter:   0.0079
 
     PROJWFC      :      3.66s CPU      5.73s WALL

 
   This run was terminated on:  17: 3:57   8Mar2023            

=------------------------------------------------------------------------------=
   JOB DONE.
=------------------------------------------------------------------------------=
