
     Program PWSCF v.7.1 starts on 27Jun2023 at 15:46:18 

     This program is part of the open-source Quantum ESPRESSO suite
     for quantum simulation of materials; please cite
         "P. Giannozzi et al., J. Phys.:Condens. Matter 21 395502 (2009);
         "P. Giannozzi et al., J. Phys.:Condens. Matter 29 465901 (2017);
         "P. Giannozzi et al., J. Chem. Phys. 152 154105 (2020);
          URL http://www.quantum-espresso.org", 
     in publications or presentations arising from this work. More details at
     http://www.quantum-espresso.org/quote

     Parallel version (MPI & OpenMP), running on      20 processor cores
     Number of MPI processes:                20
     Threads/MPI process:                     1

     MPI processes distributed on     1 nodes
     224054 MiB available memory on the printing compute node when the environment starts
 
     Reading input from input/nscf.in

     Current dimensions of program PWSCF are:
     Max number of different atomic species (ntypx) = 10
     Max number of k-points (npk) =  40000
     Max angular momentum in pseudopotentials (lmaxx) =  4

     Atomic positions and unit cell read from directory:
     ./tmp/csp.save/
     Atomic positions from file used, from input discarded
 
 
     R & G space division:  proc/nbgrp/npool/nimage =      20
     Subspace diagonalization in iterative solution of the eigenvalue problem:
     a serial algorithm will be used

 
     Parallelization info
     --------------------
     sticks:   dense  smooth     PW     G-vecs:    dense   smooth      PW
     Min          93      89     25                20481    19267    2993
     Max          94      90     26                20502    19300    3024
     Sum        1879    1789    511               409943   385631   60191
 
     Using Slab Decomposition
 


     bravais-lattice index     =            0
     lattice parameter (alat)  =       7.3605  a.u.
     unit-cell volume          =    2170.2486 (a.u.)^3
     number of atoms/cell      =            3
     number of atomic types    =            2
     number of electrons       =        32.00
     number of Kohn-Sham states=           20
     kinetic-energy cutoff     =     120.0000  Ry
     charge density cutoff     =     500.0000  Ry
     Exchange-correlation= PBE
                           (   1   4   3   4   0   0   0)

     celldm(1)=   7.360481  celldm(2)=   0.000000  celldm(3)=   0.000000
     celldm(4)=   0.000000  celldm(5)=   0.000000  celldm(6)=   0.000000

     crystal axes: (cart. coord. in units of alat)
               a(1) = (   1.000000   0.000000   0.000000 )  
               a(2) = (  -0.500000   0.866025   0.000000 )  
               a(3) = (   0.000000   0.000000   6.284350 )  

     reciprocal axes: (cart. coord. in units 2 pi/alat)
               b(1) = (  1.000000  0.577350  0.000000 )  
               b(2) = (  0.000000  1.154701  0.000000 )  
               b(3) = (  0.000000  0.000000  0.159125 )  


     PseudoPot. # 1 for Ni read from file:
     ../../pseudo/Ni.upf
     MD5 check sum: 14a7e289c5fff9cacaba393040e62f02
     Pseudo is Norm-conserving + core correction, Zval = 18.0
     Generated using ONCVPSP code by D. R. Hamann
     Using radial grid of 1372 points,  6 beta functions with: 
                l(1) =   0
                l(2) =   0
                l(3) =   1
                l(4) =   1
                l(5) =   2
                l(6) =   2

     PseudoPot. # 2 for I  read from file:
     ../../pseudo/I.upf
     MD5 check sum: 301f7009ca0a2b18b0adf53dca02d42f
     Pseudo is Norm-conserving + core correction, Zval =  7.0
     Generated using ONCVPSP code by D. R. Hamann
     Using radial grid of 1210 points,  6 beta functions with: 
                l(1) =   0
                l(2) =   0
                l(3) =   1
                l(4) =   1
                l(5) =   2
                l(6) =   2

     atomic species   valence    mass     pseudopotential
        Ni            18.00    58.69340     Ni( 1.00)
        I              7.00   126.90447     I ( 1.00)

     Starting magnetic structure 
     atomic species   magnetization
        Ni           0.278
        I            0.100

     No symmetry found


                                    s                        frac. trans.

      isym =  1     identity                                     

 cryst.   s( 1) = (     1          0          0      )
                  (     0          1          0      )
                  (     0          0          1      )

 cart.    s( 1) = (  1.0000000 -0.0000000  0.0000000 )
                  (  0.0000000  1.0000000  0.0000000 )
                  (  0.0000000  0.0000000  1.0000000 )


   Cartesian axes

     site n.     atom                  positions (alat units)
         1           Ni  tau(   1) = (   0.0000000   0.0000000   3.1421749  )
         2           I   tau(   2) = (  -0.0000000   0.5773503   3.5289144  )
         3           I   tau(   3) = (   0.5000000   0.2886751   2.7554354  )

   Crystallographic axes

     site n.     atom                  positions (cryst. coord.)
         1           Ni  tau(   1) = (  0.0000000  0.0000000  0.5000000  )
         2           I   tau(   2) = (  0.3333333  0.6666667  0.5615401  )
         3           I   tau(   3) = (  0.6666667  0.3333333  0.4384599  )

     number of k points=   256  Marzari-Vanderbilt smearing, width (Ry)=  0.0015
                       cart. coord. in units 2pi/alat
        k(    1) = (   0.0000000   0.0000000   0.0000000), wk =   0.0039062
        k(    2) = (   0.0000000   0.0721688   0.0000000), wk =   0.0039062
        k(    3) = (   0.0000000   0.1443376   0.0000000), wk =   0.0039062
        k(    4) = (   0.0000000   0.2165064   0.0000000), wk =   0.0039062
        k(    5) = (   0.0000000   0.2886751   0.0000000), wk =   0.0039062
        k(    6) = (   0.0000000   0.3608439   0.0000000), wk =   0.0039062
        k(    7) = (   0.0000000   0.4330127   0.0000000), wk =   0.0039062
        k(    8) = (   0.0000000   0.5051815   0.0000000), wk =   0.0039062
        k(    9) = (   0.0000000  -0.5773503   0.0000000), wk =   0.0039062
        k(   10) = (   0.0000000  -0.5051815   0.0000000), wk =   0.0039062
        k(   11) = (   0.0000000  -0.4330127   0.0000000), wk =   0.0039062
        k(   12) = (   0.0000000  -0.3608439   0.0000000), wk =   0.0039062
        k(   13) = (   0.0000000  -0.2886751   0.0000000), wk =   0.0039062
        k(   14) = (   0.0000000  -0.2165064   0.0000000), wk =   0.0039062
        k(   15) = (   0.0000000  -0.1443376   0.0000000), wk =   0.0039062
        k(   16) = (   0.0000000  -0.0721688   0.0000000), wk =   0.0039062
        k(   17) = (   0.0625000   0.0360844   0.0000000), wk =   0.0039062
        k(   18) = (   0.0625000   0.1082532   0.0000000), wk =   0.0039062
        k(   19) = (   0.0625000   0.1804220   0.0000000), wk =   0.0039062
        k(   20) = (   0.0625000   0.2525907   0.0000000), wk =   0.0039062
        k(   21) = (   0.0625000   0.3247595   0.0000000), wk =   0.0039062
        k(   22) = (   0.0625000   0.3969283   0.0000000), wk =   0.0039062
        k(   23) = (   0.0625000   0.4690971   0.0000000), wk =   0.0039062
        k(   24) = (   0.0625000   0.5412659   0.0000000), wk =   0.0039062
        k(   25) = (   0.0625000  -0.5412659   0.0000000), wk =   0.0039062
        k(   26) = (   0.0625000  -0.4690971   0.0000000), wk =   0.0039062
        k(   27) = (   0.0625000  -0.3969283   0.0000000), wk =   0.0039062
        k(   28) = (   0.0625000  -0.3247595   0.0000000), wk =   0.0039062
        k(   29) = (   0.0625000  -0.2525907   0.0000000), wk =   0.0039062
        k(   30) = (   0.0625000  -0.1804220   0.0000000), wk =   0.0039062
        k(   31) = (   0.0625000  -0.1082532   0.0000000), wk =   0.0039062
        k(   32) = (   0.0625000  -0.0360844   0.0000000), wk =   0.0039062
        k(   33) = (   0.1250000   0.0721688   0.0000000), wk =   0.0039062
        k(   34) = (   0.1250000   0.1443376   0.0000000), wk =   0.0039062
        k(   35) = (   0.1250000   0.2165064   0.0000000), wk =   0.0039062
        k(   36) = (   0.1250000   0.2886751   0.0000000), wk =   0.0039062
        k(   37) = (   0.1250000   0.3608439   0.0000000), wk =   0.0039062
        k(   38) = (   0.1250000   0.4330127   0.0000000), wk =   0.0039062
        k(   39) = (   0.1250000   0.5051815   0.0000000), wk =   0.0039062
        k(   40) = (   0.1250000   0.5773503   0.0000000), wk =   0.0039062
        k(   41) = (   0.1250000  -0.5051815   0.0000000), wk =   0.0039062
        k(   42) = (   0.1250000  -0.4330127   0.0000000), wk =   0.0039062
        k(   43) = (   0.1250000  -0.3608439   0.0000000), wk =   0.0039062
        k(   44) = (   0.1250000  -0.2886751   0.0000000), wk =   0.0039062
        k(   45) = (   0.1250000  -0.2165064   0.0000000), wk =   0.0039062
        k(   46) = (   0.1250000  -0.1443376   0.0000000), wk =   0.0039062
        k(   47) = (   0.1250000  -0.0721688   0.0000000), wk =   0.0039062
        k(   48) = (   0.1250000   0.0000000   0.0000000), wk =   0.0039062
        k(   49) = (   0.1875000   0.1082532   0.0000000), wk =   0.0039062
        k(   50) = (   0.1875000   0.1804220   0.0000000), wk =   0.0039062
        k(   51) = (   0.1875000   0.2525907   0.0000000), wk =   0.0039062
        k(   52) = (   0.1875000   0.3247595   0.0000000), wk =   0.0039062
        k(   53) = (   0.1875000   0.3969283   0.0000000), wk =   0.0039062
        k(   54) = (   0.1875000   0.4690971   0.0000000), wk =   0.0039062
        k(   55) = (   0.1875000   0.5412659   0.0000000), wk =   0.0039062
        k(   56) = (   0.1875000   0.6134347   0.0000000), wk =   0.0039062
        k(   57) = (   0.1875000  -0.4690971   0.0000000), wk =   0.0039062
        k(   58) = (   0.1875000  -0.3969283   0.0000000), wk =   0.0039062
        k(   59) = (   0.1875000  -0.3247595   0.0000000), wk =   0.0039062
        k(   60) = (   0.1875000  -0.2525907   0.0000000), wk =   0.0039062
        k(   61) = (   0.1875000  -0.1804220   0.0000000), wk =   0.0039062
        k(   62) = (   0.1875000  -0.1082532   0.0000000), wk =   0.0039062
        k(   63) = (   0.1875000  -0.0360844   0.0000000), wk =   0.0039062
        k(   64) = (   0.1875000   0.0360844   0.0000000), wk =   0.0039062
        k(   65) = (   0.2500000   0.1443376   0.0000000), wk =   0.0039062
        k(   66) = (   0.2500000   0.2165064   0.0000000), wk =   0.0039062
        k(   67) = (   0.2500000   0.2886751   0.0000000), wk =   0.0039062
        k(   68) = (   0.2500000   0.3608439   0.0000000), wk =   0.0039062
        k(   69) = (   0.2500000   0.4330127   0.0000000), wk =   0.0039062
        k(   70) = (   0.2500000   0.5051815   0.0000000), wk =   0.0039062
        k(   71) = (   0.2500000   0.5773503   0.0000000), wk =   0.0039062
        k(   72) = (   0.2500000   0.6495191   0.0000000), wk =   0.0039062
        k(   73) = (   0.2500000  -0.4330127   0.0000000), wk =   0.0039062
        k(   74) = (   0.2500000  -0.3608439   0.0000000), wk =   0.0039062
        k(   75) = (   0.2500000  -0.2886751   0.0000000), wk =   0.0039062
        k(   76) = (   0.2500000  -0.2165064   0.0000000), wk =   0.0039062
        k(   77) = (   0.2500000  -0.1443376   0.0000000), wk =   0.0039062
        k(   78) = (   0.2500000  -0.0721688   0.0000000), wk =   0.0039062
        k(   79) = (   0.2500000   0.0000000   0.0000000), wk =   0.0039062
        k(   80) = (   0.2500000   0.0721688   0.0000000), wk =   0.0039062
        k(   81) = (   0.3125000   0.1804220   0.0000000), wk =   0.0039062
        k(   82) = (   0.3125000   0.2525907   0.0000000), wk =   0.0039062
        k(   83) = (   0.3125000   0.3247595   0.0000000), wk =   0.0039062
        k(   84) = (   0.3125000   0.3969283   0.0000000), wk =   0.0039062
        k(   85) = (   0.3125000   0.4690971   0.0000000), wk =   0.0039062
        k(   86) = (   0.3125000   0.5412659   0.0000000), wk =   0.0039062
        k(   87) = (   0.3125000   0.6134347   0.0000000), wk =   0.0039062
        k(   88) = (   0.3125000   0.6856034   0.0000000), wk =   0.0039062
        k(   89) = (   0.3125000  -0.3969283   0.0000000), wk =   0.0039062
        k(   90) = (   0.3125000  -0.3247595   0.0000000), wk =   0.0039062
        k(   91) = (   0.3125000  -0.2525907   0.0000000), wk =   0.0039062
        k(   92) = (   0.3125000  -0.1804220   0.0000000), wk =   0.0039062
        k(   93) = (   0.3125000  -0.1082532   0.0000000), wk =   0.0039062
        k(   94) = (   0.3125000  -0.0360844   0.0000000), wk =   0.0039062
        k(   95) = (   0.3125000   0.0360844   0.0000000), wk =   0.0039062
        k(   96) = (   0.3125000   0.1082532   0.0000000), wk =   0.0039062
        k(   97) = (   0.3750000   0.2165064   0.0000000), wk =   0.0039062
        k(   98) = (   0.3750000   0.2886751   0.0000000), wk =   0.0039062
        k(   99) = (   0.3750000   0.3608439   0.0000000), wk =   0.0039062
        k(  100) = (   0.3750000   0.4330127   0.0000000), wk =   0.0039062
        k(  101) = (   0.3750000   0.5051815   0.0000000), wk =   0.0039062
        k(  102) = (   0.3750000   0.5773503   0.0000000), wk =   0.0039062
        k(  103) = (   0.3750000   0.6495191   0.0000000), wk =   0.0039062
        k(  104) = (   0.3750000   0.7216878   0.0000000), wk =   0.0039062
        k(  105) = (   0.3750000  -0.3608439   0.0000000), wk =   0.0039062
        k(  106) = (   0.3750000  -0.2886751   0.0000000), wk =   0.0039062
        k(  107) = (   0.3750000  -0.2165064   0.0000000), wk =   0.0039062
        k(  108) = (   0.3750000  -0.1443376   0.0000000), wk =   0.0039062
        k(  109) = (   0.3750000  -0.0721688   0.0000000), wk =   0.0039062
        k(  110) = (   0.3750000   0.0000000   0.0000000), wk =   0.0039062
        k(  111) = (   0.3750000   0.0721688   0.0000000), wk =   0.0039062
        k(  112) = (   0.3750000   0.1443376   0.0000000), wk =   0.0039062
        k(  113) = (   0.4375000   0.2525907   0.0000000), wk =   0.0039062
        k(  114) = (   0.4375000   0.3247595   0.0000000), wk =   0.0039062
        k(  115) = (   0.4375000   0.3969283   0.0000000), wk =   0.0039062
        k(  116) = (   0.4375000   0.4690971   0.0000000), wk =   0.0039062
        k(  117) = (   0.4375000   0.5412659   0.0000000), wk =   0.0039062
        k(  118) = (   0.4375000   0.6134347   0.0000000), wk =   0.0039062
        k(  119) = (   0.4375000   0.6856034   0.0000000), wk =   0.0039062
        k(  120) = (   0.4375000   0.7577722   0.0000000), wk =   0.0039062
        k(  121) = (   0.4375000  -0.3247595   0.0000000), wk =   0.0039062
        k(  122) = (   0.4375000  -0.2525907   0.0000000), wk =   0.0039062
        k(  123) = (   0.4375000  -0.1804220   0.0000000), wk =   0.0039062
        k(  124) = (   0.4375000  -0.1082532   0.0000000), wk =   0.0039062
        k(  125) = (   0.4375000  -0.0360844   0.0000000), wk =   0.0039062
        k(  126) = (   0.4375000   0.0360844   0.0000000), wk =   0.0039062
        k(  127) = (   0.4375000   0.1082532   0.0000000), wk =   0.0039062
        k(  128) = (   0.4375000   0.1804220   0.0000000), wk =   0.0039062
        k(  129) = (  -0.5000000  -0.2886751   0.0000000), wk =   0.0039062
        k(  130) = (  -0.5000000  -0.2165064   0.0000000), wk =   0.0039062
        k(  131) = (  -0.5000000  -0.1443376   0.0000000), wk =   0.0039062
        k(  132) = (  -0.5000000  -0.0721688   0.0000000), wk =   0.0039062
        k(  133) = (  -0.5000000   0.0000000   0.0000000), wk =   0.0039062
        k(  134) = (  -0.5000000   0.0721688   0.0000000), wk =   0.0039062
        k(  135) = (  -0.5000000   0.1443376   0.0000000), wk =   0.0039062
        k(  136) = (  -0.5000000   0.2165064   0.0000000), wk =   0.0039062
        k(  137) = (  -0.5000000  -0.8660254   0.0000000), wk =   0.0039062
        k(  138) = (  -0.5000000  -0.7938566   0.0000000), wk =   0.0039062
        k(  139) = (  -0.5000000  -0.7216878   0.0000000), wk =   0.0039062
        k(  140) = (  -0.5000000  -0.6495191   0.0000000), wk =   0.0039062
        k(  141) = (  -0.5000000  -0.5773503   0.0000000), wk =   0.0039062
        k(  142) = (  -0.5000000  -0.5051815   0.0000000), wk =   0.0039062
        k(  143) = (  -0.5000000  -0.4330127   0.0000000), wk =   0.0039062
        k(  144) = (  -0.5000000  -0.3608439   0.0000000), wk =   0.0039062
        k(  145) = (  -0.4375000  -0.2525907   0.0000000), wk =   0.0039062
        k(  146) = (  -0.4375000  -0.1804220   0.0000000), wk =   0.0039062
        k(  147) = (  -0.4375000  -0.1082532   0.0000000), wk =   0.0039062
        k(  148) = (  -0.4375000  -0.0360844   0.0000000), wk =   0.0039062
        k(  149) = (  -0.4375000   0.0360844   0.0000000), wk =   0.0039062
        k(  150) = (  -0.4375000   0.1082532   0.0000000), wk =   0.0039062
        k(  151) = (  -0.4375000   0.1804220   0.0000000), wk =   0.0039062
        k(  152) = (  -0.4375000   0.2525907   0.0000000), wk =   0.0039062
        k(  153) = (  -0.4375000  -0.8299410   0.0000000), wk =   0.0039062
        k(  154) = (  -0.4375000  -0.7577722   0.0000000), wk =   0.0039062
        k(  155) = (  -0.4375000  -0.6856034   0.0000000), wk =   0.0039062
        k(  156) = (  -0.4375000  -0.6134347   0.0000000), wk =   0.0039062
        k(  157) = (  -0.4375000  -0.5412659   0.0000000), wk =   0.0039062
        k(  158) = (  -0.4375000  -0.4690971   0.0000000), wk =   0.0039062
        k(  159) = (  -0.4375000  -0.3969283   0.0000000), wk =   0.0039062
        k(  160) = (  -0.4375000  -0.3247595   0.0000000), wk =   0.0039062
        k(  161) = (  -0.3750000  -0.2165064   0.0000000), wk =   0.0039062
        k(  162) = (  -0.3750000  -0.1443376   0.0000000), wk =   0.0039062
        k(  163) = (  -0.3750000  -0.0721688   0.0000000), wk =   0.0039062
        k(  164) = (  -0.3750000   0.0000000   0.0000000), wk =   0.0039062
        k(  165) = (  -0.3750000   0.0721688   0.0000000), wk =   0.0039062
        k(  166) = (  -0.3750000   0.1443376   0.0000000), wk =   0.0039062
        k(  167) = (  -0.3750000   0.2165064   0.0000000), wk =   0.0039062
        k(  168) = (  -0.3750000   0.2886751   0.0000000), wk =   0.0039062
        k(  169) = (  -0.3750000  -0.7938566   0.0000000), wk =   0.0039062
        k(  170) = (  -0.3750000  -0.7216878   0.0000000), wk =   0.0039062
        k(  171) = (  -0.3750000  -0.6495191   0.0000000), wk =   0.0039062
        k(  172) = (  -0.3750000  -0.5773503   0.0000000), wk =   0.0039062
        k(  173) = (  -0.3750000  -0.5051815   0.0000000), wk =   0.0039062
        k(  174) = (  -0.3750000  -0.4330127   0.0000000), wk =   0.0039062
        k(  175) = (  -0.3750000  -0.3608439   0.0000000), wk =   0.0039062
        k(  176) = (  -0.3750000  -0.2886751   0.0000000), wk =   0.0039062
        k(  177) = (  -0.3125000  -0.1804220   0.0000000), wk =   0.0039062
        k(  178) = (  -0.3125000  -0.1082532   0.0000000), wk =   0.0039062
        k(  179) = (  -0.3125000  -0.0360844   0.0000000), wk =   0.0039062
        k(  180) = (  -0.3125000   0.0360844   0.0000000), wk =   0.0039062
        k(  181) = (  -0.3125000   0.1082532   0.0000000), wk =   0.0039062
        k(  182) = (  -0.3125000   0.1804220   0.0000000), wk =   0.0039062
        k(  183) = (  -0.3125000   0.2525907   0.0000000), wk =   0.0039062
        k(  184) = (  -0.3125000   0.3247595   0.0000000), wk =   0.0039062
        k(  185) = (  -0.3125000  -0.7577722   0.0000000), wk =   0.0039062
        k(  186) = (  -0.3125000  -0.6856034   0.0000000), wk =   0.0039062
        k(  187) = (  -0.3125000  -0.6134347   0.0000000), wk =   0.0039062
        k(  188) = (  -0.3125000  -0.5412659   0.0000000), wk =   0.0039062
        k(  189) = (  -0.3125000  -0.4690971   0.0000000), wk =   0.0039062
        k(  190) = (  -0.3125000  -0.3969283   0.0000000), wk =   0.0039062
        k(  191) = (  -0.3125000  -0.3247595   0.0000000), wk =   0.0039062
        k(  192) = (  -0.3125000  -0.2525907   0.0000000), wk =   0.0039062
        k(  193) = (  -0.2500000  -0.1443376   0.0000000), wk =   0.0039062
        k(  194) = (  -0.2500000  -0.0721688   0.0000000), wk =   0.0039062
        k(  195) = (  -0.2500000   0.0000000   0.0000000), wk =   0.0039062
        k(  196) = (  -0.2500000   0.0721688   0.0000000), wk =   0.0039062
        k(  197) = (  -0.2500000   0.1443376   0.0000000), wk =   0.0039062
        k(  198) = (  -0.2500000   0.2165064   0.0000000), wk =   0.0039062
        k(  199) = (  -0.2500000   0.2886751   0.0000000), wk =   0.0039062
        k(  200) = (  -0.2500000   0.3608439   0.0000000), wk =   0.0039062
        k(  201) = (  -0.2500000  -0.7216878   0.0000000), wk =   0.0039062
        k(  202) = (  -0.2500000  -0.6495191   0.0000000), wk =   0.0039062
        k(  203) = (  -0.2500000  -0.5773503   0.0000000), wk =   0.0039062
        k(  204) = (  -0.2500000  -0.5051815   0.0000000), wk =   0.0039062
        k(  205) = (  -0.2500000  -0.4330127   0.0000000), wk =   0.0039062
        k(  206) = (  -0.2500000  -0.3608439   0.0000000), wk =   0.0039062
        k(  207) = (  -0.2500000  -0.2886751   0.0000000), wk =   0.0039062
        k(  208) = (  -0.2500000  -0.2165064   0.0000000), wk =   0.0039062
        k(  209) = (  -0.1875000  -0.1082532   0.0000000), wk =   0.0039062
        k(  210) = (  -0.1875000  -0.0360844   0.0000000), wk =   0.0039062
        k(  211) = (  -0.1875000   0.0360844   0.0000000), wk =   0.0039062
        k(  212) = (  -0.1875000   0.1082532   0.0000000), wk =   0.0039062
        k(  213) = (  -0.1875000   0.1804220   0.0000000), wk =   0.0039062
        k(  214) = (  -0.1875000   0.2525907   0.0000000), wk =   0.0039062
        k(  215) = (  -0.1875000   0.3247595   0.0000000), wk =   0.0039062
        k(  216) = (  -0.1875000   0.3969283   0.0000000), wk =   0.0039062
        k(  217) = (  -0.1875000  -0.6856034   0.0000000), wk =   0.0039062
        k(  218) = (  -0.1875000  -0.6134347   0.0000000), wk =   0.0039062
        k(  219) = (  -0.1875000  -0.5412659   0.0000000), wk =   0.0039062
        k(  220) = (  -0.1875000  -0.4690971   0.0000000), wk =   0.0039062
        k(  221) = (  -0.1875000  -0.3969283   0.0000000), wk =   0.0039062
        k(  222) = (  -0.1875000  -0.3247595   0.0000000), wk =   0.0039062
        k(  223) = (  -0.1875000  -0.2525907   0.0000000), wk =   0.0039062
        k(  224) = (  -0.1875000  -0.1804220   0.0000000), wk =   0.0039062
        k(  225) = (  -0.1250000  -0.0721688   0.0000000), wk =   0.0039062
        k(  226) = (  -0.1250000   0.0000000   0.0000000), wk =   0.0039062
        k(  227) = (  -0.1250000   0.0721688   0.0000000), wk =   0.0039062
        k(  228) = (  -0.1250000   0.1443376   0.0000000), wk =   0.0039062
        k(  229) = (  -0.1250000   0.2165064   0.0000000), wk =   0.0039062
        k(  230) = (  -0.1250000   0.2886751   0.0000000), wk =   0.0039062
        k(  231) = (  -0.1250000   0.3608439   0.0000000), wk =   0.0039062
        k(  232) = (  -0.1250000   0.4330127   0.0000000), wk =   0.0039062
        k(  233) = (  -0.1250000  -0.6495191   0.0000000), wk =   0.0039062
        k(  234) = (  -0.1250000  -0.5773503   0.0000000), wk =   0.0039062
        k(  235) = (  -0.1250000  -0.5051815   0.0000000), wk =   0.0039062
        k(  236) = (  -0.1250000  -0.4330127   0.0000000), wk =   0.0039062
        k(  237) = (  -0.1250000  -0.3608439   0.0000000), wk =   0.0039062
        k(  238) = (  -0.1250000  -0.2886751   0.0000000), wk =   0.0039062
        k(  239) = (  -0.1250000  -0.2165064   0.0000000), wk =   0.0039062
        k(  240) = (  -0.1250000  -0.1443376   0.0000000), wk =   0.0039062
        k(  241) = (  -0.0625000  -0.0360844   0.0000000), wk =   0.0039062
        k(  242) = (  -0.0625000   0.0360844   0.0000000), wk =   0.0039062
        k(  243) = (  -0.0625000   0.1082532   0.0000000), wk =   0.0039062
        k(  244) = (  -0.0625000   0.1804220   0.0000000), wk =   0.0039062
        k(  245) = (  -0.0625000   0.2525907   0.0000000), wk =   0.0039062
        k(  246) = (  -0.0625000   0.3247595   0.0000000), wk =   0.0039062
        k(  247) = (  -0.0625000   0.3969283   0.0000000), wk =   0.0039062
        k(  248) = (  -0.0625000   0.4690971   0.0000000), wk =   0.0039062
        k(  249) = (  -0.0625000  -0.6134347   0.0000000), wk =   0.0039062
        k(  250) = (  -0.0625000  -0.5412659   0.0000000), wk =   0.0039062
        k(  251) = (  -0.0625000  -0.4690971   0.0000000), wk =   0.0039062
        k(  252) = (  -0.0625000  -0.3969283   0.0000000), wk =   0.0039062
        k(  253) = (  -0.0625000  -0.3247595   0.0000000), wk =   0.0039062
        k(  254) = (  -0.0625000  -0.2525907   0.0000000), wk =   0.0039062
        k(  255) = (  -0.0625000  -0.1804220   0.0000000), wk =   0.0039062
        k(  256) = (  -0.0625000  -0.1082532   0.0000000), wk =   0.0039062

                       cryst. coord.
        k(    1) = (   0.0000000   0.0000000   0.0000000), wk =   0.0039062
        k(    2) = (   0.0000000   0.0625000   0.0000000), wk =   0.0039062
        k(    3) = (   0.0000000   0.1250000   0.0000000), wk =   0.0039062
        k(    4) = (   0.0000000   0.1875000   0.0000000), wk =   0.0039062
        k(    5) = (   0.0000000   0.2500000   0.0000000), wk =   0.0039062
        k(    6) = (   0.0000000   0.3125000   0.0000000), wk =   0.0039062
        k(    7) = (   0.0000000   0.3750000   0.0000000), wk =   0.0039062
        k(    8) = (   0.0000000   0.4375000   0.0000000), wk =   0.0039062
        k(    9) = (   0.0000000  -0.5000000   0.0000000), wk =   0.0039062
        k(   10) = (   0.0000000  -0.4375000   0.0000000), wk =   0.0039062
        k(   11) = (   0.0000000  -0.3750000   0.0000000), wk =   0.0039062
        k(   12) = (   0.0000000  -0.3125000   0.0000000), wk =   0.0039062
        k(   13) = (   0.0000000  -0.2500000   0.0000000), wk =   0.0039062
        k(   14) = (   0.0000000  -0.1875000   0.0000000), wk =   0.0039062
        k(   15) = (   0.0000000  -0.1250000   0.0000000), wk =   0.0039062
        k(   16) = (   0.0000000  -0.0625000   0.0000000), wk =   0.0039062
        k(   17) = (   0.0625000  -0.0000000   0.0000000), wk =   0.0039062
        k(   18) = (   0.0625000   0.0625000   0.0000000), wk =   0.0039062
        k(   19) = (   0.0625000   0.1250000   0.0000000), wk =   0.0039062
        k(   20) = (   0.0625000   0.1875000   0.0000000), wk =   0.0039062
        k(   21) = (   0.0625000   0.2500000   0.0000000), wk =   0.0039062
        k(   22) = (   0.0625000   0.3125000   0.0000000), wk =   0.0039062
        k(   23) = (   0.0625000   0.3750000   0.0000000), wk =   0.0039062
        k(   24) = (   0.0625000   0.4375000   0.0000000), wk =   0.0039062
        k(   25) = (   0.0625000  -0.5000000   0.0000000), wk =   0.0039062
        k(   26) = (   0.0625000  -0.4375000   0.0000000), wk =   0.0039062
        k(   27) = (   0.0625000  -0.3750000   0.0000000), wk =   0.0039062
        k(   28) = (   0.0625000  -0.3125000   0.0000000), wk =   0.0039062
        k(   29) = (   0.0625000  -0.2500000   0.0000000), wk =   0.0039062
        k(   30) = (   0.0625000  -0.1875000   0.0000000), wk =   0.0039062
        k(   31) = (   0.0625000  -0.1250000   0.0000000), wk =   0.0039062
        k(   32) = (   0.0625000  -0.0625000   0.0000000), wk =   0.0039062
        k(   33) = (   0.1250000  -0.0000000   0.0000000), wk =   0.0039062
        k(   34) = (   0.1250000   0.0625000   0.0000000), wk =   0.0039062
        k(   35) = (   0.1250000   0.1250000   0.0000000), wk =   0.0039062
        k(   36) = (   0.1250000   0.1875000   0.0000000), wk =   0.0039062
        k(   37) = (   0.1250000   0.2500000   0.0000000), wk =   0.0039062
        k(   38) = (   0.1250000   0.3125000   0.0000000), wk =   0.0039062
        k(   39) = (   0.1250000   0.3750000   0.0000000), wk =   0.0039062
        k(   40) = (   0.1250000   0.4375000   0.0000000), wk =   0.0039062
        k(   41) = (   0.1250000  -0.5000000   0.0000000), wk =   0.0039062
        k(   42) = (   0.1250000  -0.4375000   0.0000000), wk =   0.0039062
        k(   43) = (   0.1250000  -0.3750000   0.0000000), wk =   0.0039062
        k(   44) = (   0.1250000  -0.3125000   0.0000000), wk =   0.0039062
        k(   45) = (   0.1250000  -0.2500000   0.0000000), wk =   0.0039062
        k(   46) = (   0.1250000  -0.1875000   0.0000000), wk =   0.0039062
        k(   47) = (   0.1250000  -0.1250000   0.0000000), wk =   0.0039062
        k(   48) = (   0.1250000  -0.0625000   0.0000000), wk =   0.0039062
        k(   49) = (   0.1875000  -0.0000000   0.0000000), wk =   0.0039062
        k(   50) = (   0.1875000   0.0625000   0.0000000), wk =   0.0039062
        k(   51) = (   0.1875000   0.1250000   0.0000000), wk =   0.0039062
        k(   52) = (   0.1875000   0.1875000   0.0000000), wk =   0.0039062
        k(   53) = (   0.1875000   0.2500000   0.0000000), wk =   0.0039062
        k(   54) = (   0.1875000   0.3125000   0.0000000), wk =   0.0039062
        k(   55) = (   0.1875000   0.3750000   0.0000000), wk =   0.0039062
        k(   56) = (   0.1875000   0.4375000   0.0000000), wk =   0.0039062
        k(   57) = (   0.1875000  -0.5000000   0.0000000), wk =   0.0039062
        k(   58) = (   0.1875000  -0.4375000   0.0000000), wk =   0.0039062
        k(   59) = (   0.1875000  -0.3750000   0.0000000), wk =   0.0039062
        k(   60) = (   0.1875000  -0.3125000   0.0000000), wk =   0.0039062
        k(   61) = (   0.1875000  -0.2500000   0.0000000), wk =   0.0039062
        k(   62) = (   0.1875000  -0.1875000   0.0000000), wk =   0.0039062
        k(   63) = (   0.1875000  -0.1250000   0.0000000), wk =   0.0039062
        k(   64) = (   0.1875000  -0.0625000   0.0000000), wk =   0.0039062
        k(   65) = (   0.2500000  -0.0000000   0.0000000), wk =   0.0039062
        k(   66) = (   0.2500000   0.0625000   0.0000000), wk =   0.0039062
        k(   67) = (   0.2500000   0.1250000   0.0000000), wk =   0.0039062
        k(   68) = (   0.2500000   0.1875000   0.0000000), wk =   0.0039062
        k(   69) = (   0.2500000   0.2500000   0.0000000), wk =   0.0039062
        k(   70) = (   0.2500000   0.3125000   0.0000000), wk =   0.0039062
        k(   71) = (   0.2500000   0.3750000   0.0000000), wk =   0.0039062
        k(   72) = (   0.2500000   0.4375000   0.0000000), wk =   0.0039062
        k(   73) = (   0.2500000  -0.5000000   0.0000000), wk =   0.0039062
        k(   74) = (   0.2500000  -0.4375000   0.0000000), wk =   0.0039062
        k(   75) = (   0.2500000  -0.3750000   0.0000000), wk =   0.0039062
        k(   76) = (   0.2500000  -0.3125000   0.0000000), wk =   0.0039062
        k(   77) = (   0.2500000  -0.2500000   0.0000000), wk =   0.0039062
        k(   78) = (   0.2500000  -0.1875000   0.0000000), wk =   0.0039062
        k(   79) = (   0.2500000  -0.1250000   0.0000000), wk =   0.0039062
        k(   80) = (   0.2500000  -0.0625000   0.0000000), wk =   0.0039062
        k(   81) = (   0.3125000  -0.0000000   0.0000000), wk =   0.0039062
        k(   82) = (   0.3125000   0.0625000   0.0000000), wk =   0.0039062
        k(   83) = (   0.3125000   0.1250000   0.0000000), wk =   0.0039062
        k(   84) = (   0.3125000   0.1875000   0.0000000), wk =   0.0039062
        k(   85) = (   0.3125000   0.2500000   0.0000000), wk =   0.0039062
        k(   86) = (   0.3125000   0.3125000   0.0000000), wk =   0.0039062
        k(   87) = (   0.3125000   0.3750000   0.0000000), wk =   0.0039062
        k(   88) = (   0.3125000   0.4375000   0.0000000), wk =   0.0039062
        k(   89) = (   0.3125000  -0.5000000   0.0000000), wk =   0.0039062
        k(   90) = (   0.3125000  -0.4375000   0.0000000), wk =   0.0039062
        k(   91) = (   0.3125000  -0.3750000   0.0000000), wk =   0.0039062
        k(   92) = (   0.3125000  -0.3125000   0.0000000), wk =   0.0039062
        k(   93) = (   0.3125000  -0.2500000   0.0000000), wk =   0.0039062
        k(   94) = (   0.3125000  -0.1875000   0.0000000), wk =   0.0039062
        k(   95) = (   0.3125000  -0.1250000   0.0000000), wk =   0.0039062
        k(   96) = (   0.3125000  -0.0625000   0.0000000), wk =   0.0039062
        k(   97) = (   0.3750000  -0.0000000   0.0000000), wk =   0.0039062
        k(   98) = (   0.3750000   0.0625000   0.0000000), wk =   0.0039062
        k(   99) = (   0.3750000   0.1250000   0.0000000), wk =   0.0039062
        k(  100) = (   0.3750000   0.1875000   0.0000000), wk =   0.0039062
        k(  101) = (   0.3750000   0.2500000   0.0000000), wk =   0.0039062
        k(  102) = (   0.3750000   0.3125000   0.0000000), wk =   0.0039062
        k(  103) = (   0.3750000   0.3750000   0.0000000), wk =   0.0039062
        k(  104) = (   0.3750000   0.4375000   0.0000000), wk =   0.0039062
        k(  105) = (   0.3750000  -0.5000000   0.0000000), wk =   0.0039062
        k(  106) = (   0.3750000  -0.4375000   0.0000000), wk =   0.0039062
        k(  107) = (   0.3750000  -0.3750000   0.0000000), wk =   0.0039062
        k(  108) = (   0.3750000  -0.3125000   0.0000000), wk =   0.0039062
        k(  109) = (   0.3750000  -0.2500000   0.0000000), wk =   0.0039062
        k(  110) = (   0.3750000  -0.1875000   0.0000000), wk =   0.0039062
        k(  111) = (   0.3750000  -0.1250000   0.0000000), wk =   0.0039062
        k(  112) = (   0.3750000  -0.0625000   0.0000000), wk =   0.0039062
        k(  113) = (   0.4375000  -0.0000000   0.0000000), wk =   0.0039062
        k(  114) = (   0.4375000   0.0625000   0.0000000), wk =   0.0039062
        k(  115) = (   0.4375000   0.1250000   0.0000000), wk =   0.0039062
        k(  116) = (   0.4375000   0.1875000   0.0000000), wk =   0.0039062
        k(  117) = (   0.4375000   0.2500000   0.0000000), wk =   0.0039062
        k(  118) = (   0.4375000   0.3125000   0.0000000), wk =   0.0039062
        k(  119) = (   0.4375000   0.3750000   0.0000000), wk =   0.0039062
        k(  120) = (   0.4375000   0.4375000   0.0000000), wk =   0.0039062
        k(  121) = (   0.4375000  -0.5000000   0.0000000), wk =   0.0039062
        k(  122) = (   0.4375000  -0.4375000   0.0000000), wk =   0.0039062
        k(  123) = (   0.4375000  -0.3750000   0.0000000), wk =   0.0039062
        k(  124) = (   0.4375000  -0.3125000   0.0000000), wk =   0.0039062
        k(  125) = (   0.4375000  -0.2500000   0.0000000), wk =   0.0039062
        k(  126) = (   0.4375000  -0.1875000   0.0000000), wk =   0.0039062
        k(  127) = (   0.4375000  -0.1250000   0.0000000), wk =   0.0039062
        k(  128) = (   0.4375000  -0.0625000   0.0000000), wk =   0.0039062
        k(  129) = (  -0.5000000   0.0000000   0.0000000), wk =   0.0039062
        k(  130) = (  -0.5000000   0.0625000   0.0000000), wk =   0.0039062
        k(  131) = (  -0.5000000   0.1250000   0.0000000), wk =   0.0039062
        k(  132) = (  -0.5000000   0.1875000   0.0000000), wk =   0.0039062
        k(  133) = (  -0.5000000   0.2500000   0.0000000), wk =   0.0039062
        k(  134) = (  -0.5000000   0.3125000   0.0000000), wk =   0.0039062
        k(  135) = (  -0.5000000   0.3750000   0.0000000), wk =   0.0039062
        k(  136) = (  -0.5000000   0.4375000   0.0000000), wk =   0.0039062
        k(  137) = (  -0.5000000  -0.5000000   0.0000000), wk =   0.0039062
        k(  138) = (  -0.5000000  -0.4375000   0.0000000), wk =   0.0039062
        k(  139) = (  -0.5000000  -0.3750000   0.0000000), wk =   0.0039062
        k(  140) = (  -0.5000000  -0.3125000   0.0000000), wk =   0.0039062
        k(  141) = (  -0.5000000  -0.2500000   0.0000000), wk =   0.0039062
        k(  142) = (  -0.5000000  -0.1875000   0.0000000), wk =   0.0039062
        k(  143) = (  -0.5000000  -0.1250000   0.0000000), wk =   0.0039062
        k(  144) = (  -0.5000000  -0.0625000   0.0000000), wk =   0.0039062
        k(  145) = (  -0.4375000   0.0000000   0.0000000), wk =   0.0039062
        k(  146) = (  -0.4375000   0.0625000   0.0000000), wk =   0.0039062
        k(  147) = (  -0.4375000   0.1250000   0.0000000), wk =   0.0039062
        k(  148) = (  -0.4375000   0.1875000   0.0000000), wk =   0.0039062
        k(  149) = (  -0.4375000   0.2500000   0.0000000), wk =   0.0039062
        k(  150) = (  -0.4375000   0.3125000   0.0000000), wk =   0.0039062
        k(  151) = (  -0.4375000   0.3750000   0.0000000), wk =   0.0039062
        k(  152) = (  -0.4375000   0.4375000   0.0000000), wk =   0.0039062
        k(  153) = (  -0.4375000  -0.5000000   0.0000000), wk =   0.0039062
        k(  154) = (  -0.4375000  -0.4375000   0.0000000), wk =   0.0039062
        k(  155) = (  -0.4375000  -0.3750000   0.0000000), wk =   0.0039062
        k(  156) = (  -0.4375000  -0.3125000   0.0000000), wk =   0.0039062
        k(  157) = (  -0.4375000  -0.2500000   0.0000000), wk =   0.0039062
        k(  158) = (  -0.4375000  -0.1875000   0.0000000), wk =   0.0039062
        k(  159) = (  -0.4375000  -0.1250000   0.0000000), wk =   0.0039062
        k(  160) = (  -0.4375000  -0.0625000   0.0000000), wk =   0.0039062
        k(  161) = (  -0.3750000   0.0000000   0.0000000), wk =   0.0039062
        k(  162) = (  -0.3750000   0.0625000   0.0000000), wk =   0.0039062
        k(  163) = (  -0.3750000   0.1250000   0.0000000), wk =   0.0039062
        k(  164) = (  -0.3750000   0.1875000   0.0000000), wk =   0.0039062
        k(  165) = (  -0.3750000   0.2500000   0.0000000), wk =   0.0039062
        k(  166) = (  -0.3750000   0.3125000   0.0000000), wk =   0.0039062
        k(  167) = (  -0.3750000   0.3750000   0.0000000), wk =   0.0039062
        k(  168) = (  -0.3750000   0.4375000   0.0000000), wk =   0.0039062
        k(  169) = (  -0.3750000  -0.5000000   0.0000000), wk =   0.0039062
        k(  170) = (  -0.3750000  -0.4375000   0.0000000), wk =   0.0039062
        k(  171) = (  -0.3750000  -0.3750000   0.0000000), wk =   0.0039062
        k(  172) = (  -0.3750000  -0.3125000   0.0000000), wk =   0.0039062
        k(  173) = (  -0.3750000  -0.2500000   0.0000000), wk =   0.0039062
        k(  174) = (  -0.3750000  -0.1875000   0.0000000), wk =   0.0039062
        k(  175) = (  -0.3750000  -0.1250000   0.0000000), wk =   0.0039062
        k(  176) = (  -0.3750000  -0.0625000   0.0000000), wk =   0.0039062
        k(  177) = (  -0.3125000   0.0000000   0.0000000), wk =   0.0039062
        k(  178) = (  -0.3125000   0.0625000   0.0000000), wk =   0.0039062
        k(  179) = (  -0.3125000   0.1250000   0.0000000), wk =   0.0039062
        k(  180) = (  -0.3125000   0.1875000   0.0000000), wk =   0.0039062
        k(  181) = (  -0.3125000   0.2500000   0.0000000), wk =   0.0039062
        k(  182) = (  -0.3125000   0.3125000   0.0000000), wk =   0.0039062
        k(  183) = (  -0.3125000   0.3750000   0.0000000), wk =   0.0039062
        k(  184) = (  -0.3125000   0.4375000   0.0000000), wk =   0.0039062
        k(  185) = (  -0.3125000  -0.5000000   0.0000000), wk =   0.0039062
        k(  186) = (  -0.3125000  -0.4375000   0.0000000), wk =   0.0039062
        k(  187) = (  -0.3125000  -0.3750000   0.0000000), wk =   0.0039062
        k(  188) = (  -0.3125000  -0.3125000   0.0000000), wk =   0.0039062
        k(  189) = (  -0.3125000  -0.2500000   0.0000000), wk =   0.0039062
        k(  190) = (  -0.3125000  -0.1875000   0.0000000), wk =   0.0039062
        k(  191) = (  -0.3125000  -0.1250000   0.0000000), wk =   0.0039062
        k(  192) = (  -0.3125000  -0.0625000   0.0000000), wk =   0.0039062
        k(  193) = (  -0.2500000   0.0000000   0.0000000), wk =   0.0039062
        k(  194) = (  -0.2500000   0.0625000   0.0000000), wk =   0.0039062
        k(  195) = (  -0.2500000   0.1250000   0.0000000), wk =   0.0039062
        k(  196) = (  -0.2500000   0.1875000   0.0000000), wk =   0.0039062
        k(  197) = (  -0.2500000   0.2500000   0.0000000), wk =   0.0039062
        k(  198) = (  -0.2500000   0.3125000   0.0000000), wk =   0.0039062
        k(  199) = (  -0.2500000   0.3750000   0.0000000), wk =   0.0039062
        k(  200) = (  -0.2500000   0.4375000   0.0000000), wk =   0.0039062
        k(  201) = (  -0.2500000  -0.5000000   0.0000000), wk =   0.0039062
        k(  202) = (  -0.2500000  -0.4375000   0.0000000), wk =   0.0039062
        k(  203) = (  -0.2500000  -0.3750000   0.0000000), wk =   0.0039062
        k(  204) = (  -0.2500000  -0.3125000   0.0000000), wk =   0.0039062
        k(  205) = (  -0.2500000  -0.2500000   0.0000000), wk =   0.0039062
        k(  206) = (  -0.2500000  -0.1875000   0.0000000), wk =   0.0039062
        k(  207) = (  -0.2500000  -0.1250000   0.0000000), wk =   0.0039062
        k(  208) = (  -0.2500000  -0.0625000   0.0000000), wk =   0.0039062
        k(  209) = (  -0.1875000   0.0000000   0.0000000), wk =   0.0039062
        k(  210) = (  -0.1875000   0.0625000   0.0000000), wk =   0.0039062
        k(  211) = (  -0.1875000   0.1250000   0.0000000), wk =   0.0039062
        k(  212) = (  -0.1875000   0.1875000   0.0000000), wk =   0.0039062
        k(  213) = (  -0.1875000   0.2500000   0.0000000), wk =   0.0039062
        k(  214) = (  -0.1875000   0.3125000   0.0000000), wk =   0.0039062
        k(  215) = (  -0.1875000   0.3750000   0.0000000), wk =   0.0039062
        k(  216) = (  -0.1875000   0.4375000   0.0000000), wk =   0.0039062
        k(  217) = (  -0.1875000  -0.5000000   0.0000000), wk =   0.0039062
        k(  218) = (  -0.1875000  -0.4375000   0.0000000), wk =   0.0039062
        k(  219) = (  -0.1875000  -0.3750000   0.0000000), wk =   0.0039062
        k(  220) = (  -0.1875000  -0.3125000   0.0000000), wk =   0.0039062
        k(  221) = (  -0.1875000  -0.2500000   0.0000000), wk =   0.0039062
        k(  222) = (  -0.1875000  -0.1875000   0.0000000), wk =   0.0039062
        k(  223) = (  -0.1875000  -0.1250000   0.0000000), wk =   0.0039062
        k(  224) = (  -0.1875000  -0.0625000   0.0000000), wk =   0.0039062
        k(  225) = (  -0.1250000   0.0000000   0.0000000), wk =   0.0039062
        k(  226) = (  -0.1250000   0.0625000   0.0000000), wk =   0.0039062
        k(  227) = (  -0.1250000   0.1250000   0.0000000), wk =   0.0039062
        k(  228) = (  -0.1250000   0.1875000   0.0000000), wk =   0.0039062
        k(  229) = (  -0.1250000   0.2500000   0.0000000), wk =   0.0039062
        k(  230) = (  -0.1250000   0.3125000   0.0000000), wk =   0.0039062
        k(  231) = (  -0.1250000   0.3750000   0.0000000), wk =   0.0039062
        k(  232) = (  -0.1250000   0.4375000   0.0000000), wk =   0.0039062
        k(  233) = (  -0.1250000  -0.5000000   0.0000000), wk =   0.0039062
        k(  234) = (  -0.1250000  -0.4375000   0.0000000), wk =   0.0039062
        k(  235) = (  -0.1250000  -0.3750000   0.0000000), wk =   0.0039062
        k(  236) = (  -0.1250000  -0.3125000   0.0000000), wk =   0.0039062
        k(  237) = (  -0.1250000  -0.2500000   0.0000000), wk =   0.0039062
        k(  238) = (  -0.1250000  -0.1875000   0.0000000), wk =   0.0039062
        k(  239) = (  -0.1250000  -0.1250000   0.0000000), wk =   0.0039062
        k(  240) = (  -0.1250000  -0.0625000   0.0000000), wk =   0.0039062
        k(  241) = (  -0.0625000   0.0000000   0.0000000), wk =   0.0039062
        k(  242) = (  -0.0625000   0.0625000   0.0000000), wk =   0.0039062
        k(  243) = (  -0.0625000   0.1250000   0.0000000), wk =   0.0039062
        k(  244) = (  -0.0625000   0.1875000   0.0000000), wk =   0.0039062
        k(  245) = (  -0.0625000   0.2500000   0.0000000), wk =   0.0039062
        k(  246) = (  -0.0625000   0.3125000   0.0000000), wk =   0.0039062
        k(  247) = (  -0.0625000   0.3750000   0.0000000), wk =   0.0039062
        k(  248) = (  -0.0625000   0.4375000   0.0000000), wk =   0.0039062
        k(  249) = (  -0.0625000  -0.5000000   0.0000000), wk =   0.0039062
        k(  250) = (  -0.0625000  -0.4375000   0.0000000), wk =   0.0039062
        k(  251) = (  -0.0625000  -0.3750000   0.0000000), wk =   0.0039062
        k(  252) = (  -0.0625000  -0.3125000   0.0000000), wk =   0.0039062
        k(  253) = (  -0.0625000  -0.2500000   0.0000000), wk =   0.0039062
        k(  254) = (  -0.0625000  -0.1875000   0.0000000), wk =   0.0039062
        k(  255) = (  -0.0625000  -0.1250000   0.0000000), wk =   0.0039062
        k(  256) = (  -0.0625000  -0.0625000   0.0000000), wk =   0.0039062

     Dense  grid:   409943 G-vectors     FFT dimensions: (  54,  54, 360)

     Smooth grid:   385631 G-vectors     FFT dimensions: (  54,  54, 324)

     Dynamical RAM for                 wfc:       0.73 MB

     Dynamical RAM for     wfc (w. buffer):       0.73 MB

     Dynamical RAM for           str. fact:       0.63 MB

     Dynamical RAM for           local pot:       0.00 MB

     Dynamical RAM for          nlocal pot:       1.98 MB

     Dynamical RAM for                qrad:       3.59 MB

     Dynamical RAM for          rho,v,vnew:       4.28 MB

     Dynamical RAM for           G-vectors:       1.32 MB

     Dynamical RAM for          h,s,v(r/c):       0.07 MB

     Dynamical RAM for          <psi|beta>:       0.02 MB

     Dynamical RAM for                 psi:       1.47 MB

     Dynamical RAM for                hpsi:       1.47 MB

     Dynamical RAM for      wfcinit/wfcrot:       1.48 MB

     Estimated static dynamical RAM per process >      15.87 MB

     Estimated max dynamical RAM per process >      18.90 MB

     Estimated total dynamical RAM >     378.08 MB
     Generating pointlists ...
     new r_m :   0.2867 (alat units)  2.1099 (a.u.) for type    1
     new r_m :   0.2867 (alat units)  2.1099 (a.u.) for type    2

     The potential is recalculated from file :
     ./tmp/csp.save/charge-density

     Starting wfcs are   18 randomized atomic wfcs +    2 random wfcs

     Band Structure Calculation
     Davidson diagonalization with overlap

     Computing kpt #:     1  of   512
     total cpu time spent up to now is        1.6 secs

     Computing kpt #:     2  of   512
     total cpu time spent up to now is        2.0 secs

     Computing kpt #:     3  of   512
     total cpu time spent up to now is        2.4 secs

     Computing kpt #:     4  of   512
     total cpu time spent up to now is        2.8 secs

     Computing kpt #:     5  of   512
     total cpu time spent up to now is        3.2 secs

     Computing kpt #:     6  of   512
     total cpu time spent up to now is        3.5 secs

     Computing kpt #:     7  of   512
     total cpu time spent up to now is        3.8 secs

     Computing kpt #:     8  of   512
     total cpu time spent up to now is        4.2 secs

     Computing kpt #:     9  of   512
     total cpu time spent up to now is        4.5 secs

     Computing kpt #:    10  of   512
     total cpu time spent up to now is        4.9 secs

     Computing kpt #:    11  of   512
     total cpu time spent up to now is        5.2 secs

     Computing kpt #:    12  of   512
     total cpu time spent up to now is        5.6 secs

     Computing kpt #:    13  of   512
     total cpu time spent up to now is        5.9 secs

     Computing kpt #:    14  of   512
     total cpu time spent up to now is        6.3 secs

     Computing kpt #:    15  of   512
     total cpu time spent up to now is        6.7 secs

     Computing kpt #:    16  of   512
     total cpu time spent up to now is        7.1 secs

     Computing kpt #:    17  of   512
     total cpu time spent up to now is        7.5 secs

     Computing kpt #:    18  of   512
     total cpu time spent up to now is        8.0 secs

     Computing kpt #:    19  of   512
     total cpu time spent up to now is        8.4 secs

     Computing kpt #:    20  of   512
     total cpu time spent up to now is        8.7 secs

     Computing kpt #:    21  of   512
     total cpu time spent up to now is        9.1 secs

     Computing kpt #:    22  of   512
     total cpu time spent up to now is        9.4 secs

     Computing kpt #:    23  of   512
     total cpu time spent up to now is        9.8 secs

     Computing kpt #:    24  of   512
     total cpu time spent up to now is       10.2 secs

     Computing kpt #:    25  of   512
     total cpu time spent up to now is       10.6 secs

     Computing kpt #:    26  of   512
     total cpu time spent up to now is       10.9 secs

     Computing kpt #:    27  of   512
     total cpu time spent up to now is       11.3 secs

     Computing kpt #:    28  of   512
     total cpu time spent up to now is       11.7 secs

     Computing kpt #:    29  of   512
     total cpu time spent up to now is       12.0 secs

     Computing kpt #:    30  of   512
     total cpu time spent up to now is       12.4 secs

     Computing kpt #:    31  of   512
     total cpu time spent up to now is       12.9 secs

     Computing kpt #:    32  of   512
     total cpu time spent up to now is       13.3 secs

     Computing kpt #:    33  of   512
     total cpu time spent up to now is       13.7 secs

     Computing kpt #:    34  of   512
     total cpu time spent up to now is       14.1 secs

     Computing kpt #:    35  of   512
     total cpu time spent up to now is       14.4 secs

     Computing kpt #:    36  of   512
     total cpu time spent up to now is       14.8 secs

     Computing kpt #:    37  of   512
     total cpu time spent up to now is       15.1 secs

     Computing kpt #:    38  of   512
     total cpu time spent up to now is       15.4 secs

     Computing kpt #:    39  of   512
     total cpu time spent up to now is       15.7 secs

     Computing kpt #:    40  of   512
     total cpu time spent up to now is       16.1 secs

     Computing kpt #:    41  of   512
     total cpu time spent up to now is       16.4 secs

     Computing kpt #:    42  of   512
     total cpu time spent up to now is       16.7 secs

     Computing kpt #:    43  of   512
     total cpu time spent up to now is       17.1 secs

     Computing kpt #:    44  of   512
     total cpu time spent up to now is       17.4 secs

     Computing kpt #:    45  of   512
     total cpu time spent up to now is       17.7 secs

     Computing kpt #:    46  of   512
     total cpu time spent up to now is       18.1 secs

     Computing kpt #:    47  of   512
     total cpu time spent up to now is       18.4 secs

     Computing kpt #:    48  of   512
     total cpu time spent up to now is       18.9 secs

     Computing kpt #:    49  of   512
     total cpu time spent up to now is       19.2 secs

     Computing kpt #:    50  of   512
     total cpu time spent up to now is       19.6 secs

     Computing kpt #:    51  of   512
     total cpu time spent up to now is       20.0 secs

     Computing kpt #:    52  of   512
     total cpu time spent up to now is       20.3 secs

     Computing kpt #:    53  of   512
     total cpu time spent up to now is       20.7 secs

     Computing kpt #:    54  of   512
     total cpu time spent up to now is       21.1 secs

     Computing kpt #:    55  of   512
     total cpu time spent up to now is       21.5 secs

     Computing kpt #:    56  of   512
     total cpu time spent up to now is       22.0 secs

     Computing kpt #:    57  of   512
     total cpu time spent up to now is       22.4 secs

     Computing kpt #:    58  of   512
     total cpu time spent up to now is       22.8 secs

     Computing kpt #:    59  of   512
     total cpu time spent up to now is       23.1 secs

     Computing kpt #:    60  of   512
     total cpu time spent up to now is       23.5 secs

     Computing kpt #:    61  of   512
     total cpu time spent up to now is       23.8 secs

     Computing kpt #:    62  of   512
     total cpu time spent up to now is       24.2 secs

     Computing kpt #:    63  of   512
     total cpu time spent up to now is       24.6 secs

     Computing kpt #:    64  of   512
     total cpu time spent up to now is       25.0 secs

     Computing kpt #:    65  of   512
     total cpu time spent up to now is       25.3 secs

     Computing kpt #:    66  of   512
     total cpu time spent up to now is       25.7 secs

     Computing kpt #:    67  of   512
     total cpu time spent up to now is       26.1 secs

     Computing kpt #:    68  of   512
     total cpu time spent up to now is       26.4 secs

     Computing kpt #:    69  of   512
     total cpu time spent up to now is       26.8 secs

     Computing kpt #:    70  of   512
     total cpu time spent up to now is       27.2 secs

     Computing kpt #:    71  of   512
     total cpu time spent up to now is       27.5 secs

     Computing kpt #:    72  of   512
     total cpu time spent up to now is       27.9 secs

     Computing kpt #:    73  of   512
     total cpu time spent up to now is       28.3 secs

     Computing kpt #:    74  of   512
     total cpu time spent up to now is       28.7 secs

     Computing kpt #:    75  of   512
     total cpu time spent up to now is       29.1 secs

     Computing kpt #:    76  of   512
     total cpu time spent up to now is       29.4 secs

     Computing kpt #:    77  of   512
     total cpu time spent up to now is       29.8 secs

     Computing kpt #:    78  of   512
     total cpu time spent up to now is       30.2 secs

     Computing kpt #:    79  of   512
     total cpu time spent up to now is       30.5 secs

     Computing kpt #:    80  of   512
     total cpu time spent up to now is       30.9 secs

     Computing kpt #:    81  of   512
     total cpu time spent up to now is       31.3 secs

     Computing kpt #:    82  of   512
     total cpu time spent up to now is       31.6 secs

     Computing kpt #:    83  of   512
     total cpu time spent up to now is       32.0 secs

     Computing kpt #:    84  of   512
     total cpu time spent up to now is       32.4 secs

     Computing kpt #:    85  of   512
     total cpu time spent up to now is       32.8 secs

     Computing kpt #:    86  of   512
     total cpu time spent up to now is       33.1 secs

     Computing kpt #:    87  of   512
     total cpu time spent up to now is       33.4 secs

     Computing kpt #:    88  of   512
     total cpu time spent up to now is       33.8 secs

     Computing kpt #:    89  of   512
     total cpu time spent up to now is       34.2 secs

     Computing kpt #:    90  of   512
     total cpu time spent up to now is       34.6 secs

     Computing kpt #:    91  of   512
     total cpu time spent up to now is       35.0 secs

     Computing kpt #:    92  of   512
     total cpu time spent up to now is       35.4 secs

     Computing kpt #:    93  of   512
     total cpu time spent up to now is       35.7 secs

     Computing kpt #:    94  of   512
     total cpu time spent up to now is       36.1 secs

     Computing kpt #:    95  of   512
     total cpu time spent up to now is       36.5 secs

     Computing kpt #:    96  of   512
     total cpu time spent up to now is       36.8 secs

     Computing kpt #:    97  of   512
     total cpu time spent up to now is       37.2 secs

     Computing kpt #:    98  of   512
     total cpu time spent up to now is       37.6 secs

     Computing kpt #:    99  of   512
     total cpu time spent up to now is       37.9 secs

     Computing kpt #:   100  of   512
     total cpu time spent up to now is       38.3 secs

     Computing kpt #:   101  of   512
     total cpu time spent up to now is       38.7 secs

     Computing kpt #:   102  of   512
     total cpu time spent up to now is       39.0 secs

     Computing kpt #:   103  of   512
     total cpu time spent up to now is       39.4 secs

     Computing kpt #:   104  of   512
     total cpu time spent up to now is       39.8 secs

     Computing kpt #:   105  of   512
     total cpu time spent up to now is       40.1 secs

     Computing kpt #:   106  of   512
     total cpu time spent up to now is       40.5 secs

     Computing kpt #:   107  of   512
     total cpu time spent up to now is       40.9 secs

     Computing kpt #:   108  of   512
     total cpu time spent up to now is       41.2 secs

     Computing kpt #:   109  of   512
     total cpu time spent up to now is       41.6 secs

     Computing kpt #:   110  of   512
     total cpu time spent up to now is       41.9 secs

     Computing kpt #:   111  of   512
     total cpu time spent up to now is       42.3 secs

     Computing kpt #:   112  of   512
     total cpu time spent up to now is       42.7 secs

     Computing kpt #:   113  of   512
     total cpu time spent up to now is       43.0 secs

     Computing kpt #:   114  of   512
     total cpu time spent up to now is       43.4 secs

     Computing kpt #:   115  of   512
     total cpu time spent up to now is       43.8 secs

     Computing kpt #:   116  of   512
     total cpu time spent up to now is       44.2 secs

     Computing kpt #:   117  of   512
     total cpu time spent up to now is       44.6 secs

     Computing kpt #:   118  of   512
     total cpu time spent up to now is       44.9 secs

     Computing kpt #:   119  of   512
     total cpu time spent up to now is       45.4 secs

     Computing kpt #:   120  of   512
     total cpu time spent up to now is       45.8 secs

     Computing kpt #:   121  of   512
     total cpu time spent up to now is       46.1 secs

     Computing kpt #:   122  of   512
     total cpu time spent up to now is       46.5 secs

     Computing kpt #:   123  of   512
     total cpu time spent up to now is       46.9 secs

     Computing kpt #:   124  of   512
     total cpu time spent up to now is       47.2 secs

     Computing kpt #:   125  of   512
     total cpu time spent up to now is       47.6 secs

     Computing kpt #:   126  of   512
     total cpu time spent up to now is       48.0 secs

     Computing kpt #:   127  of   512
     total cpu time spent up to now is       48.4 secs

     Computing kpt #:   128  of   512
     total cpu time spent up to now is       48.7 secs

     Computing kpt #:   129  of   512
     total cpu time spent up to now is       49.1 secs

     Computing kpt #:   130  of   512
     total cpu time spent up to now is       49.4 secs

     Computing kpt #:   131  of   512
     total cpu time spent up to now is       49.8 secs

     Computing kpt #:   132  of   512
     total cpu time spent up to now is       50.2 secs

     Computing kpt #:   133  of   512
     total cpu time spent up to now is       50.6 secs

     Computing kpt #:   134  of   512
     total cpu time spent up to now is       51.0 secs

     Computing kpt #:   135  of   512
     total cpu time spent up to now is       51.4 secs

     Computing kpt #:   136  of   512
     total cpu time spent up to now is       51.8 secs

     Computing kpt #:   137  of   512
     total cpu time spent up to now is       52.1 secs

     Computing kpt #:   138  of   512
     total cpu time spent up to now is       52.5 secs

     Computing kpt #:   139  of   512
     total cpu time spent up to now is       52.8 secs

     Computing kpt #:   140  of   512
     total cpu time spent up to now is       53.2 secs

     Computing kpt #:   141  of   512
     total cpu time spent up to now is       53.7 secs

     Computing kpt #:   142  of   512
     total cpu time spent up to now is       54.0 secs

     Computing kpt #:   143  of   512
     total cpu time spent up to now is       54.4 secs

     Computing kpt #:   144  of   512
     total cpu time spent up to now is       54.8 secs

     Computing kpt #:   145  of   512
     total cpu time spent up to now is       55.1 secs

     Computing kpt #:   146  of   512
     total cpu time spent up to now is       55.5 secs

     Computing kpt #:   147  of   512
     total cpu time spent up to now is       55.9 secs

     Computing kpt #:   148  of   512
     total cpu time spent up to now is       56.3 secs

     Computing kpt #:   149  of   512
     total cpu time spent up to now is       56.6 secs

     Computing kpt #:   150  of   512
     total cpu time spent up to now is       57.0 secs

     Computing kpt #:   151  of   512
     total cpu time spent up to now is       57.4 secs

     Computing kpt #:   152  of   512
     total cpu time spent up to now is       57.7 secs

     Computing kpt #:   153  of   512
     total cpu time spent up to now is       58.1 secs

     Computing kpt #:   154  of   512
     total cpu time spent up to now is       58.5 secs

     Computing kpt #:   155  of   512
     total cpu time spent up to now is       58.9 secs

     Computing kpt #:   156  of   512
     total cpu time spent up to now is       59.3 secs

     Computing kpt #:   157  of   512
     total cpu time spent up to now is       59.7 secs

     Computing kpt #:   158  of   512
     total cpu time spent up to now is       60.1 secs

     Computing kpt #:   159  of   512
     total cpu time spent up to now is       60.5 secs

     Computing kpt #:   160  of   512
     total cpu time spent up to now is       60.9 secs

     Computing kpt #:   161  of   512
     total cpu time spent up to now is       61.2 secs

     Computing kpt #:   162  of   512
     total cpu time spent up to now is       61.6 secs

     Computing kpt #:   163  of   512
     total cpu time spent up to now is       62.0 secs

     Computing kpt #:   164  of   512
     total cpu time spent up to now is       62.3 secs

     Computing kpt #:   165  of   512
     total cpu time spent up to now is       62.7 secs

     Computing kpt #:   166  of   512
     total cpu time spent up to now is       63.0 secs

     Computing kpt #:   167  of   512
     total cpu time spent up to now is       63.4 secs

     Computing kpt #:   168  of   512
     total cpu time spent up to now is       63.7 secs

     Computing kpt #:   169  of   512
     total cpu time spent up to now is       64.1 secs

     Computing kpt #:   170  of   512
     total cpu time spent up to now is       64.5 secs

     Computing kpt #:   171  of   512
     total cpu time spent up to now is       64.9 secs

     Computing kpt #:   172  of   512
     total cpu time spent up to now is       65.2 secs

     Computing kpt #:   173  of   512
     total cpu time spent up to now is       65.6 secs

     Computing kpt #:   174  of   512
     total cpu time spent up to now is       66.0 secs

     Computing kpt #:   175  of   512
     total cpu time spent up to now is       66.4 secs

     Computing kpt #:   176  of   512
     total cpu time spent up to now is       66.7 secs

     Computing kpt #:   177  of   512
     total cpu time spent up to now is       67.1 secs

     Computing kpt #:   178  of   512
     total cpu time spent up to now is       67.4 secs

     Computing kpt #:   179  of   512
     total cpu time spent up to now is       67.8 secs

     Computing kpt #:   180  of   512
     total cpu time spent up to now is       68.2 secs

     Computing kpt #:   181  of   512
     total cpu time spent up to now is       68.6 secs

     Computing kpt #:   182  of   512
     total cpu time spent up to now is       68.9 secs

     Computing kpt #:   183  of   512
     total cpu time spent up to now is       69.3 secs

     Computing kpt #:   184  of   512
     total cpu time spent up to now is       69.7 secs

     Computing kpt #:   185  of   512
     total cpu time spent up to now is       70.1 secs

     Computing kpt #:   186  of   512
     total cpu time spent up to now is       70.4 secs

     Computing kpt #:   187  of   512
     total cpu time spent up to now is       70.8 secs

     Computing kpt #:   188  of   512
     total cpu time spent up to now is       71.1 secs

     Computing kpt #:   189  of   512
     total cpu time spent up to now is       71.5 secs

     Computing kpt #:   190  of   512
     total cpu time spent up to now is       71.9 secs

     Computing kpt #:   191  of   512
     total cpu time spent up to now is       72.2 secs

     Computing kpt #:   192  of   512
     total cpu time spent up to now is       72.6 secs

     Computing kpt #:   193  of   512
     total cpu time spent up to now is       73.0 secs

     Computing kpt #:   194  of   512
     total cpu time spent up to now is       73.3 secs

     Computing kpt #:   195  of   512
     total cpu time spent up to now is       73.7 secs

     Computing kpt #:   196  of   512
     total cpu time spent up to now is       74.1 secs

     Computing kpt #:   197  of   512
     total cpu time spent up to now is       74.4 secs

     Computing kpt #:   198  of   512
     total cpu time spent up to now is       74.8 secs

     Computing kpt #:   199  of   512
     total cpu time spent up to now is       75.2 secs

     Computing kpt #:   200  of   512
     total cpu time spent up to now is       75.5 secs

     Computing kpt #:   201  of   512
     total cpu time spent up to now is       75.9 secs

     Computing kpt #:   202  of   512
     total cpu time spent up to now is       76.3 secs

     Computing kpt #:   203  of   512
     total cpu time spent up to now is       76.7 secs

     Computing kpt #:   204  of   512
     total cpu time spent up to now is       77.0 secs

     Computing kpt #:   205  of   512
     total cpu time spent up to now is       77.4 secs

     Computing kpt #:   206  of   512
     total cpu time spent up to now is       77.8 secs

     Computing kpt #:   207  of   512
     total cpu time spent up to now is       78.2 secs

     Computing kpt #:   208  of   512
     total cpu time spent up to now is       78.5 secs

     Computing kpt #:   209  of   512
     total cpu time spent up to now is       78.9 secs

     Computing kpt #:   210  of   512
     total cpu time spent up to now is       79.3 secs

     Computing kpt #:   211  of   512
     total cpu time spent up to now is       79.7 secs

     Computing kpt #:   212  of   512
     total cpu time spent up to now is       80.1 secs

     Computing kpt #:   213  of   512
     total cpu time spent up to now is       80.5 secs

     Computing kpt #:   214  of   512
     total cpu time spent up to now is       80.8 secs

     Computing kpt #:   215  of   512
     total cpu time spent up to now is       81.2 secs

     Computing kpt #:   216  of   512
     total cpu time spent up to now is       81.5 secs

     Computing kpt #:   217  of   512
     total cpu time spent up to now is       81.9 secs

     Computing kpt #:   218  of   512
     total cpu time spent up to now is       82.4 secs

     Computing kpt #:   219  of   512
     total cpu time spent up to now is       82.8 secs

     Computing kpt #:   220  of   512
     total cpu time spent up to now is       83.2 secs

     Computing kpt #:   221  of   512
     total cpu time spent up to now is       83.7 secs

     Computing kpt #:   222  of   512
     total cpu time spent up to now is       84.0 secs

     Computing kpt #:   223  of   512
     total cpu time spent up to now is       84.4 secs

     Computing kpt #:   224  of   512
     total cpu time spent up to now is       84.8 secs

     Computing kpt #:   225  of   512
     total cpu time spent up to now is       85.2 secs

     Computing kpt #:   226  of   512
     total cpu time spent up to now is       85.6 secs

     Computing kpt #:   227  of   512
     total cpu time spent up to now is       86.0 secs

     Computing kpt #:   228  of   512
     total cpu time spent up to now is       86.4 secs

     Computing kpt #:   229  of   512
     total cpu time spent up to now is       86.8 secs

     Computing kpt #:   230  of   512
     total cpu time spent up to now is       87.1 secs

     Computing kpt #:   231  of   512
     total cpu time spent up to now is       87.5 secs

     Computing kpt #:   232  of   512
     total cpu time spent up to now is       87.9 secs

     Computing kpt #:   233  of   512
     total cpu time spent up to now is       88.3 secs

     Computing kpt #:   234  of   512
     total cpu time spent up to now is       88.7 secs

     Computing kpt #:   235  of   512
     total cpu time spent up to now is       89.0 secs

     Computing kpt #:   236  of   512
     total cpu time spent up to now is       89.4 secs

     Computing kpt #:   237  of   512
     total cpu time spent up to now is       89.8 secs

     Computing kpt #:   238  of   512
     total cpu time spent up to now is       90.2 secs

     Computing kpt #:   239  of   512
     total cpu time spent up to now is       90.5 secs

     Computing kpt #:   240  of   512
     total cpu time spent up to now is       90.9 secs

     Computing kpt #:   241  of   512
     total cpu time spent up to now is       91.3 secs

     Computing kpt #:   242  of   512
     total cpu time spent up to now is       91.7 secs

     Computing kpt #:   243  of   512
     total cpu time spent up to now is       92.1 secs

     Computing kpt #:   244  of   512
     total cpu time spent up to now is       92.5 secs

     Computing kpt #:   245  of   512
     total cpu time spent up to now is       92.9 secs

     Computing kpt #:   246  of   512
     total cpu time spent up to now is       93.3 secs

     Computing kpt #:   247  of   512
     total cpu time spent up to now is       93.6 secs

     Computing kpt #:   248  of   512
     total cpu time spent up to now is       94.0 secs

     Computing kpt #:   249  of   512
     total cpu time spent up to now is       94.4 secs

     Computing kpt #:   250  of   512
     total cpu time spent up to now is       94.7 secs

     Computing kpt #:   251  of   512
     total cpu time spent up to now is       95.1 secs

     Computing kpt #:   252  of   512
     total cpu time spent up to now is       95.5 secs

     Computing kpt #:   253  of   512
     total cpu time spent up to now is       95.8 secs

     Computing kpt #:   254  of   512
     total cpu time spent up to now is       96.2 secs

     Computing kpt #:   255  of   512
     total cpu time spent up to now is       96.6 secs

     Computing kpt #:   256  of   512
     total cpu time spent up to now is       97.0 secs

     Computing kpt #:   257  of   512
     total cpu time spent up to now is       97.4 secs

     Computing kpt #:   258  of   512
     total cpu time spent up to now is       97.8 secs

     Computing kpt #:   259  of   512
     total cpu time spent up to now is       98.2 secs

     Computing kpt #:   260  of   512
     total cpu time spent up to now is       98.6 secs

     Computing kpt #:   261  of   512
     total cpu time spent up to now is       98.9 secs

     Computing kpt #:   262  of   512
     total cpu time spent up to now is       99.3 secs

     Computing kpt #:   263  of   512
     total cpu time spent up to now is       99.6 secs

     Computing kpt #:   264  of   512
     total cpu time spent up to now is      100.0 secs

     Computing kpt #:   265  of   512
     total cpu time spent up to now is      100.3 secs

     Computing kpt #:   266  of   512
     total cpu time spent up to now is      100.7 secs

     Computing kpt #:   267  of   512
     total cpu time spent up to now is      101.0 secs

     Computing kpt #:   268  of   512
     total cpu time spent up to now is      101.4 secs

     Computing kpt #:   269  of   512
     total cpu time spent up to now is      101.8 secs

     Computing kpt #:   270  of   512
     total cpu time spent up to now is      102.1 secs

     Computing kpt #:   271  of   512
     total cpu time spent up to now is      102.6 secs

     Computing kpt #:   272  of   512
     total cpu time spent up to now is      103.0 secs

     Computing kpt #:   273  of   512
     total cpu time spent up to now is      103.5 secs

     Computing kpt #:   274  of   512
     total cpu time spent up to now is      103.9 secs

     Computing kpt #:   275  of   512
     total cpu time spent up to now is      104.3 secs

     Computing kpt #:   276  of   512
     total cpu time spent up to now is      104.7 secs

     Computing kpt #:   277  of   512
     total cpu time spent up to now is      105.0 secs

     Computing kpt #:   278  of   512
     total cpu time spent up to now is      105.4 secs

     Computing kpt #:   279  of   512
     total cpu time spent up to now is      105.8 secs

     Computing kpt #:   280  of   512
     total cpu time spent up to now is      106.1 secs

     Computing kpt #:   281  of   512
     total cpu time spent up to now is      106.5 secs

     Computing kpt #:   282  of   512
     total cpu time spent up to now is      106.9 secs

     Computing kpt #:   283  of   512
     total cpu time spent up to now is      107.2 secs

     Computing kpt #:   284  of   512
     total cpu time spent up to now is      107.6 secs

     Computing kpt #:   285  of   512
     total cpu time spent up to now is      108.0 secs

     Computing kpt #:   286  of   512
     total cpu time spent up to now is      108.4 secs

     Computing kpt #:   287  of   512
     total cpu time spent up to now is      108.9 secs

     Computing kpt #:   288  of   512
     total cpu time spent up to now is      109.3 secs

     Computing kpt #:   289  of   512
     total cpu time spent up to now is      109.7 secs

     Computing kpt #:   290  of   512
     total cpu time spent up to now is      110.1 secs

     Computing kpt #:   291  of   512
     total cpu time spent up to now is      110.5 secs

     Computing kpt #:   292  of   512
     total cpu time spent up to now is      110.9 secs

     Computing kpt #:   293  of   512
     total cpu time spent up to now is      111.2 secs

     Computing kpt #:   294  of   512
     total cpu time spent up to now is      111.6 secs

     Computing kpt #:   295  of   512
     total cpu time spent up to now is      112.0 secs

     Computing kpt #:   296  of   512
     total cpu time spent up to now is      112.4 secs

     Computing kpt #:   297  of   512
     total cpu time spent up to now is      112.8 secs

     Computing kpt #:   298  of   512
     total cpu time spent up to now is      113.2 secs

     Computing kpt #:   299  of   512
     total cpu time spent up to now is      113.5 secs

     Computing kpt #:   300  of   512
     total cpu time spent up to now is      113.9 secs

     Computing kpt #:   301  of   512
     total cpu time spent up to now is      114.3 secs

     Computing kpt #:   302  of   512
     total cpu time spent up to now is      114.7 secs

     Computing kpt #:   303  of   512
     total cpu time spent up to now is      115.1 secs

     Computing kpt #:   304  of   512
     total cpu time spent up to now is      115.6 secs

     Computing kpt #:   305  of   512
     total cpu time spent up to now is      116.0 secs

     Computing kpt #:   306  of   512
     total cpu time spent up to now is      116.4 secs

     Computing kpt #:   307  of   512
     total cpu time spent up to now is      116.7 secs

     Computing kpt #:   308  of   512
     total cpu time spent up to now is      117.1 secs

     Computing kpt #:   309  of   512
     total cpu time spent up to now is      117.5 secs

     Computing kpt #:   310  of   512
     total cpu time spent up to now is      117.9 secs

     Computing kpt #:   311  of   512
     total cpu time spent up to now is      118.3 secs

     Computing kpt #:   312  of   512
     total cpu time spent up to now is      118.7 secs

     Computing kpt #:   313  of   512
     total cpu time spent up to now is      119.0 secs

     Computing kpt #:   314  of   512
     total cpu time spent up to now is      119.4 secs

     Computing kpt #:   315  of   512
     total cpu time spent up to now is      119.8 secs

     Computing kpt #:   316  of   512
     total cpu time spent up to now is      120.2 secs

     Computing kpt #:   317  of   512
     total cpu time spent up to now is      120.5 secs

     Computing kpt #:   318  of   512
     total cpu time spent up to now is      120.9 secs

     Computing kpt #:   319  of   512
     total cpu time spent up to now is      121.3 secs

     Computing kpt #:   320  of   512
     total cpu time spent up to now is      121.8 secs

     Computing kpt #:   321  of   512
     total cpu time spent up to now is      122.1 secs

     Computing kpt #:   322  of   512
     total cpu time spent up to now is      122.5 secs

     Computing kpt #:   323  of   512
     total cpu time spent up to now is      122.9 secs

     Computing kpt #:   324  of   512
     total cpu time spent up to now is      123.3 secs

     Computing kpt #:   325  of   512
     total cpu time spent up to now is      123.6 secs

     Computing kpt #:   326  of   512
     total cpu time spent up to now is      124.0 secs

     Computing kpt #:   327  of   512
     total cpu time spent up to now is      124.3 secs

     Computing kpt #:   328  of   512
     total cpu time spent up to now is      124.7 secs

     Computing kpt #:   329  of   512
     total cpu time spent up to now is      125.1 secs

     Computing kpt #:   330  of   512
     total cpu time spent up to now is      125.5 secs

     Computing kpt #:   331  of   512
     total cpu time spent up to now is      125.8 secs

     Computing kpt #:   332  of   512
     total cpu time spent up to now is      126.2 secs

     Computing kpt #:   333  of   512
     total cpu time spent up to now is      126.6 secs

     Computing kpt #:   334  of   512
     total cpu time spent up to now is      127.0 secs

     Computing kpt #:   335  of   512
     total cpu time spent up to now is      127.4 secs

     Computing kpt #:   336  of   512
     total cpu time spent up to now is      127.7 secs

     Computing kpt #:   337  of   512
     total cpu time spent up to now is      128.1 secs

     Computing kpt #:   338  of   512
     total cpu time spent up to now is      128.5 secs

     Computing kpt #:   339  of   512
     total cpu time spent up to now is      128.9 secs

     Computing kpt #:   340  of   512
     total cpu time spent up to now is      129.2 secs

     Computing kpt #:   341  of   512
     total cpu time spent up to now is      129.6 secs

     Computing kpt #:   342  of   512
     total cpu time spent up to now is      130.0 secs

     Computing kpt #:   343  of   512
     total cpu time spent up to now is      130.3 secs

     Computing kpt #:   344  of   512
     total cpu time spent up to now is      130.7 secs

     Computing kpt #:   345  of   512
     total cpu time spent up to now is      131.1 secs

     Computing kpt #:   346  of   512
     total cpu time spent up to now is      131.4 secs

     Computing kpt #:   347  of   512
     total cpu time spent up to now is      131.8 secs

     Computing kpt #:   348  of   512
     total cpu time spent up to now is      132.2 secs

     Computing kpt #:   349  of   512
     total cpu time spent up to now is      132.6 secs

     Computing kpt #:   350  of   512
     total cpu time spent up to now is      132.9 secs

     Computing kpt #:   351  of   512
     total cpu time spent up to now is      133.3 secs

     Computing kpt #:   352  of   512
     total cpu time spent up to now is      133.7 secs

     Computing kpt #:   353  of   512
     total cpu time spent up to now is      134.0 secs

     Computing kpt #:   354  of   512
     total cpu time spent up to now is      134.4 secs

     Computing kpt #:   355  of   512
     total cpu time spent up to now is      134.8 secs

     Computing kpt #:   356  of   512
     total cpu time spent up to now is      135.2 secs

     Computing kpt #:   357  of   512
     total cpu time spent up to now is      135.5 secs

     Computing kpt #:   358  of   512
     total cpu time spent up to now is      135.9 secs

     Computing kpt #:   359  of   512
     total cpu time spent up to now is      136.2 secs

     Computing kpt #:   360  of   512
     total cpu time spent up to now is      136.6 secs

     Computing kpt #:   361  of   512
     total cpu time spent up to now is      137.0 secs

     Computing kpt #:   362  of   512
     total cpu time spent up to now is      137.4 secs

     Computing kpt #:   363  of   512
[...]
     0.0000   0.0000   0.0000   0.0000

          k =-0.1875-0.4691 0.0000 ( 48158 PWs)   bands (ev):

  -104.6314 -64.9662 -64.9557 -64.9555 -14.5011 -14.1894  -6.9708  -6.2283
    -5.4111  -4.7453  -4.6956  -4.1361  -3.2296  -3.1743  -2.9758  -1.6088
    -1.2383   2.0696   3.6590   4.5330

     occupation numbers 
     1.0000   1.0000   1.0000   1.0000   1.0000   1.0000   1.0000   1.0000
     1.0000   1.0000   1.0000   1.0000   1.0000   1.0000   1.0000   0.0000
     0.0000   0.0000   0.0000   0.0000

          k =-0.1875-0.3969 0.0000 ( 48173 PWs)   bands (ev):

  -104.6314 -64.9662 -64.9557 -64.9554 -14.6748 -14.2139  -6.7016  -6.1489
    -5.3173  -4.8185  -4.5627  -3.9349  -3.2616  -3.1152  -2.9148  -1.6482
    -1.2333   2.3196   3.4214   4.2315

     occupation numbers 
     1.0000   1.0000   1.0000   1.0000   1.0000   1.0000   1.0000   1.0000
     1.0000   1.0000   1.0000   1.0000   1.0000   1.0000   1.0000   0.0000
     0.0000   0.0000   0.0000   0.0000

          k =-0.1875-0.3248 0.0000 ( 48145 PWs)   bands (ev):

  -104.6314 -64.9662 -64.9556 -64.9554 -14.8650 -14.2689  -6.4507  -5.9790
    -5.2631  -4.7743  -4.3483  -3.7156  -3.3039  -3.0270  -2.8688  -1.6001
    -1.2937   2.5572   3.3122   3.7718

     occupation numbers 
     1.0000   1.0000   1.0000   1.0000   1.0000   1.0000   1.0000   1.0000
     1.0000   1.0000   1.0000   1.0000   1.0000   1.0000   1.0000   0.0000
     0.0000   0.0000   0.0000   0.0000

          k =-0.1875-0.2526 0.0000 ( 48141 PWs)   bands (ev):

  -104.6314 -64.9662 -64.9555 -64.9553 -15.0460 -14.3380  -6.3389  -5.7663
    -5.0899  -4.6536  -4.1088  -3.5192  -3.3236  -2.9496  -2.8448  -1.5019
    -1.3319   2.5999   3.2707   3.3710

     occupation numbers 
     1.0000   1.0000   1.0000   1.0000   1.0000   1.0000   1.0000   1.0000
     1.0000   1.0000   1.0000   1.0000   1.0000   1.0000   1.0000   0.0000
     0.0000   0.0000   0.0000   0.0000

          k =-0.1875-0.1804 0.0000 ( 48148 PWs)   bands (ev):

  -104.6314 -64.9662 -64.9555 -64.9553 -15.1978 -14.4051  -6.3549  -5.5516
    -4.7744  -4.5646  -3.8665  -3.4030  -3.3114  -2.8928  -2.8119  -1.5741
    -1.1425   2.5466   2.9761   3.2259

     occupation numbers 
     1.0000   1.0000   1.0000   1.0000   1.0000   1.0000   1.0000   1.0000
     1.0000   1.0000   1.0000   1.0000   1.0000   1.0000   1.0000   0.0000
     0.0000   0.0000   0.0000   0.0000

          k =-0.1250-0.0722 0.0000 ( 48142 PWs)   bands (ev):

  -104.6314 -64.9663 -64.9553 -64.9553 -15.4501 -14.5311  -6.5279  -4.9644
    -4.5602  -3.8687  -3.5315  -3.3520  -3.2996  -2.7986  -2.6712  -1.3615
    -0.9666   2.3656   2.9052   3.1000

     occupation numbers 
     1.0000   1.0000   1.0000   1.0000   1.0000   1.0000   1.0000   1.0000
     1.0000   1.0000   1.0000   1.0000   1.0000   1.0000   1.0000   0.0000
     0.0000   0.0000   0.0000   0.0000

          k =-0.1250 0.0000 0.0000 ( 48119 PWs)   bands (ev):

  -104.6314 -64.9663 -64.9553 -64.9553 -15.4798 -14.5471  -6.5552  -4.8751
    -4.5675  -3.7140  -3.5100  -3.3745  -3.2897  -2.7765  -2.6642  -1.2417
    -0.9869   2.2735   2.8715   3.2342

     occupation numbers 
     1.0000   1.0000   1.0000   1.0000   1.0000   1.0000   1.0000   1.0000
     1.0000   1.0000   1.0000   1.0000   1.0000   1.0000   1.0000   0.0000
     0.0000   0.0000   0.0000   0.0000

          k =-0.1250 0.0722 0.0000 ( 48142 PWs)   bands (ev):

  -104.6314 -64.9663 -64.9553 -64.9553 -15.4501 -14.5311  -6.5279  -4.9644
    -4.5602  -3.8687  -3.5315  -3.3520  -3.2996  -2.7986  -2.6712  -1.3615
    -0.9666   2.3656   2.9052   3.1000

     occupation numbers 
     1.0000   1.0000   1.0000   1.0000   1.0000   1.0000   1.0000   1.0000
     1.0000   1.0000   1.0000   1.0000   1.0000   1.0000   1.0000   0.0000
     0.0000   0.0000   0.0000   0.0000

          k =-0.1250 0.1443 0.0000 ( 48136 PWs)   bands (ev):

  -104.6314 -64.9662 -64.9554 -64.9553 -15.3627 -14.4854  -6.4531  -5.1769
    -4.5711  -4.2319  -3.6770  -3.3160  -3.3020  -2.8373  -2.7304  -1.4586
    -1.0872   2.6062   2.9865   3.0902

     occupation numbers 
     1.0000   1.0000   1.0000   1.0000   1.0000   1.0000   1.0000   1.0000
     1.0000   1.0000   1.0000   1.0000   1.0000   1.0000   1.0000   0.0000
     0.0000   0.0000   0.0000   0.0000

          k =-0.1250 0.2165 0.0000 ( 48125 PWs)   bands (ev):

  -104.6314 -64.9662 -64.9554 -64.9553 -15.2243 -14.4171  -6.3606  -5.4521
    -4.7356  -4.5716  -3.8915  -3.3427  -3.3246  -2.8847  -2.8001  -1.4473
    -1.2988   2.8769   3.0166   3.1464

     occupation numbers 
     1.0000   1.0000   1.0000   1.0000   1.0000   1.0000   1.0000   1.0000
     1.0000   1.0000   1.0000   1.0000   1.0000   1.0000   1.0000   0.0000
     0.0000   0.0000   0.0000   0.0000

          k =-0.1250 0.2887 0.0000 ( 48141 PWs)   bands (ev):

  -104.6314 -64.9662 -64.9555 -64.9553 -15.0460 -14.3380  -6.3389  -5.7663
    -5.0899  -4.6536  -4.1088  -3.5192  -3.3236  -2.9496  -2.8448  -1.5019
    -1.3319   2.5999   3.2707   3.3710

     occupation numbers 
     1.0000   1.0000   1.0000   1.0000   1.0000   1.0000   1.0000   1.0000
     1.0000   1.0000   1.0000   1.0000   1.0000   1.0000   1.0000   0.0000
     0.0000   0.0000   0.0000   0.0000

          k =-0.1250 0.3608 0.0000 ( 48162 PWs)   bands (ev):

  -104.6314 -64.9662 -64.9556 -64.9554 -14.8453 -14.2647  -6.5526  -6.0283
    -5.1876  -4.7257  -4.3102  -3.7602  -3.3071  -3.0346  -2.9017  -1.5404
    -1.2574   2.1979   3.4200   3.7769

     occupation numbers 
     1.0000   1.0000   1.0000   1.0000   1.0000   1.0000   1.0000   1.0000
     1.0000   1.0000   1.0000   1.0000   1.0000   1.0000   1.0000   0.0000
     0.0000   0.0000   0.0000   0.0000

          k =-0.1250 0.4330 0.0000 ( 48177 PWs)   bands (ev):

  -104.6314 -64.9662 -64.9557 -64.9554 -14.6463 -14.2162  -6.9101  -6.1925
    -5.1087  -4.7470  -4.4873  -3.9950  -3.2759  -3.1248  -2.9736  -1.4998
    -1.2124   1.8577   3.5661   4.0836

     occupation numbers 
     1.0000   1.0000   1.0000   1.0000   1.0000   1.0000   1.0000   1.0000
     1.0000   1.0000   1.0000   1.0000   1.0000   1.0000   1.0000   0.0000
     0.0000   0.0000   0.0000   0.0000

          k =-0.1250-0.6495 0.0000 ( 48212 PWs)   bands (ev):

  -104.6314 -64.9662 -64.9557 -64.9554 -14.4813 -14.2066  -7.1846  -6.2977
    -5.0612  -4.6320  -4.6122  -4.2088  -3.2511  -3.1740  -3.0510  -1.4234
    -1.2233   1.6460   3.7253   4.1559

     occupation numbers 
     1.0000   1.0000   1.0000   1.0000   1.0000   1.0000   1.0000   1.0000
     1.0000   1.0000   1.0000   1.0000   1.0000   1.0000   1.0000   0.0000
     0.0000   0.0000   0.0000   0.0000

          k =-0.1250-0.5774 0.0000 ( 48240 PWs)   bands (ev):

  -104.6314 -64.9662 -64.9558 -64.9554 -14.4064 -14.2183  -7.2841  -6.3349
    -5.0605  -4.6590  -4.4486  -4.3979  -3.2600  -3.1466  -3.1088  -1.3694
    -1.2553   1.5766   3.8067   4.2245

     occupation numbers 
     1.0000   1.0000   1.0000   1.0000   1.0000   1.0000   1.0000   1.0000
     1.0000   1.0000   1.0000   1.0000   1.0000   1.0000   1.0000   0.0000
     0.0000   0.0000   0.0000   0.0000

          k =-0.1250-0.5052 0.0000 ( 48212 PWs)   bands (ev):

  -104.6314 -64.9662 -64.9557 -64.9554 -14.4813 -14.2066  -7.1846  -6.2977
    -5.0612  -4.6320  -4.6122  -4.2088  -3.2511  -3.1740  -3.0510  -1.4234
    -1.2233   1.6460   3.7253   4.1559

     occupation numbers 
     1.0000   1.0000   1.0000   1.0000   1.0000   1.0000   1.0000   1.0000
     1.0000   1.0000   1.0000   1.0000   1.0000   1.0000   1.0000   0.0000
     0.0000   0.0000   0.0000   0.0000

          k =-0.1250-0.4330 0.0000 ( 48177 PWs)   bands (ev):

  -104.6314 -64.9662 -64.9557 -64.9554 -14.6463 -14.2162  -6.9101  -6.1925
    -5.1087  -4.7470  -4.4873  -3.9950  -3.2759  -3.1248  -2.9736  -1.4998
    -1.2124   1.8577   3.5661   4.0836

     occupation numbers 
     1.0000   1.0000   1.0000   1.0000   1.0000   1.0000   1.0000   1.0000
     1.0000   1.0000   1.0000   1.0000   1.0000   1.0000   1.0000   0.0000
     0.0000   0.0000   0.0000   0.0000

          k =-0.1250-0.3608 0.0000 ( 48162 PWs)   bands (ev):

  -104.6314 -64.9662 -64.9556 -64.9554 -14.8453 -14.2647  -6.5526  -6.0283
    -5.1876  -4.7257  -4.3102  -3.7602  -3.3071  -3.0346  -2.9017  -1.5404
    -1.2574   2.1979   3.4200   3.7769

     occupation numbers 
     1.0000   1.0000   1.0000   1.0000   1.0000   1.0000   1.0000   1.0000
     1.0000   1.0000   1.0000   1.0000   1.0000   1.0000   1.0000   0.0000
     0.0000   0.0000   0.0000   0.0000

          k =-0.1250-0.2887 0.0000 ( 48141 PWs)   bands (ev):

  -104.6314 -64.9662 -64.9555 -64.9553 -15.0460 -14.3380  -6.3389  -5.7663
    -5.0899  -4.6536  -4.1088  -3.5192  -3.3236  -2.9496  -2.8448  -1.5019
    -1.3319   2.5999   3.2707   3.3710

     occupation numbers 
     1.0000   1.0000   1.0000   1.0000   1.0000   1.0000   1.0000   1.0000
     1.0000   1.0000   1.0000   1.0000   1.0000   1.0000   1.0000   0.0000
     0.0000   0.0000   0.0000   0.0000

          k =-0.1250-0.2165 0.0000 ( 48125 PWs)   bands (ev):

  -104.6314 -64.9662 -64.9554 -64.9553 -15.2243 -14.4171  -6.3606  -5.4521
    -4.7356  -4.5716  -3.8915  -3.3427  -3.3246  -2.8847  -2.8001  -1.4473
    -1.2988   2.8769   3.0166   3.1464

     occupation numbers 
     1.0000   1.0000   1.0000   1.0000   1.0000   1.0000   1.0000   1.0000
     1.0000   1.0000   1.0000   1.0000   1.0000   1.0000   1.0000   0.0000
     0.0000   0.0000   0.0000   0.0000

          k =-0.1250-0.1443 0.0000 ( 48136 PWs)   bands (ev):

  -104.6314 -64.9662 -64.9554 -64.9553 -15.3627 -14.4854  -6.4531  -5.1769
    -4.5711  -4.2319  -3.6770  -3.3160  -3.3020  -2.8373  -2.7304  -1.4586
    -1.0872   2.6062   2.9865   3.0902

     occupation numbers 
     1.0000   1.0000   1.0000   1.0000   1.0000   1.0000   1.0000   1.0000
     1.0000   1.0000   1.0000   1.0000   1.0000   1.0000   1.0000   0.0000
     0.0000   0.0000   0.0000   0.0000

          k =-0.0625-0.0361 0.0000 ( 48113 PWs)   bands (ev):

  -104.6314 -64.9663 -64.9553 -64.9552 -15.5405 -14.5804  -6.6134  -4.6871
    -4.5692  -3.4831  -3.4323  -3.3988  -3.2526  -2.7051  -2.6365  -1.0463
    -0.9144   2.0422   2.7919   2.8577

     occupation numbers 
     1.0000   1.0000   1.0000   1.0000   1.0000   1.0000   1.0000   1.0000
     1.0000   1.0000   1.0000   1.0000   1.0000   1.0000   1.0000   0.0000
     0.0000   0.0000   0.0000   0.0000

          k =-0.0625 0.0361 0.0000 ( 48113 PWs)   bands (ev):

  -104.6314 -64.9663 -64.9553 -64.9552 -15.5405 -14.5804  -6.6134  -4.6871
    -4.5692  -3.4831  -3.4323  -3.3988  -3.2526  -2.7051  -2.6365  -1.0463
    -0.9144   2.0422   2.7919   2.8577

     occupation numbers 
     1.0000   1.0000   1.0000   1.0000   1.0000   1.0000   1.0000   1.0000
     1.0000   1.0000   1.0000   1.0000   1.0000   1.0000   1.0000   0.0000
     0.0000   0.0000   0.0000   0.0000

          k =-0.0625 0.1083 0.0000 ( 48119 PWs)   bands (ev):

  -104.6314 -64.9663 -64.9553 -64.9553 -15.4798 -14.5471  -6.5552  -4.8751
    -4.5675  -3.7140  -3.5100  -3.3745  -3.2897  -2.7765  -2.6642  -1.2417
    -0.9869   2.2735   2.8715   3.2342

     occupation numbers 
     1.0000   1.0000   1.0000   1.0000   1.0000   1.0000   1.0000   1.0000
     1.0000   1.0000   1.0000   1.0000   1.0000   1.0000   1.0000   0.0000
     0.0000   0.0000   0.0000   0.0000

          k =-0.0625 0.1804 0.0000 ( 48136 PWs)   bands (ev):

  -104.6314 -64.9662 -64.9554 -64.9553 -15.3627 -14.4854  -6.4531  -5.1769
    -4.5711  -4.2319  -3.6770  -3.3160  -3.3020  -2.8373  -2.7304  -1.4586
    -1.0872   2.6062   2.9865   3.0902

     occupation numbers 
     1.0000   1.0000   1.0000   1.0000   1.0000   1.0000   1.0000   1.0000
     1.0000   1.0000   1.0000   1.0000   1.0000   1.0000   1.0000   0.0000
     0.0000   0.0000   0.0000   0.0000

          k =-0.0625 0.2526 0.0000 ( 48148 PWs)   bands (ev):

  -104.6314 -64.9662 -64.9555 -64.9553 -15.1978 -14.4051  -6.3549  -5.5516
    -4.7744  -4.5646  -3.8665  -3.4030  -3.3114  -2.8928  -2.8119  -1.5741
    -1.1425   2.5466   2.9761   3.2259

     occupation numbers 
     1.0000   1.0000   1.0000   1.0000   1.0000   1.0000   1.0000   1.0000
     1.0000   1.0000   1.0000   1.0000   1.0000   1.0000   1.0000   0.0000
     0.0000   0.0000   0.0000   0.0000

          k =-0.0625 0.3248 0.0000 ( 48173 PWs)   bands (ev):

  -104.6314 -64.9662 -64.9556 -64.9553 -14.9994 -14.3213  -6.4203  -5.9083
    -5.0863  -4.5780  -4.0519  -3.6226  -3.3221  -2.9614  -2.8983  -1.5435
    -1.1570   2.0691   3.2349   3.5034

     occupation numbers 
     1.0000   1.0000   1.0000   1.0000   1.0000   1.0000   1.0000   1.0000
     1.0000   1.0000   1.0000   1.0000   1.0000   1.0000   1.0000   0.0000
     0.0000   0.0000   0.0000   0.0000

          k =-0.0625 0.3969 0.0000 ( 48195 PWs)   bands (ev):

  -104.6314 -64.9662 -64.9557 -64.9554 -14.7884 -14.2532  -6.7745  -6.1175
    -5.0965  -4.5850  -4.2232  -3.8766  -3.3218  -3.0553  -2.9805  -1.4378
    -1.1515   1.6675   3.3377   3.7601

     occupation numbers 
     1.0000   1.0000   1.0000   1.0000   1.0000   1.0000   1.0000   1.0000
     1.0000   1.0000   1.0000   1.0000   1.0000   1.0000   1.0000   0.0000
     0.0000   0.0000   0.0000   0.0000

          k =-0.0625 0.4691 0.0000 ( 48179 PWs)   bands (ev):

  -104.6314 -64.9662 -64.9557 -64.9554 -14.5938 -14.2204  -7.1354  -6.2813
    -4.9223  -4.5728  -4.3743  -4.1038  -3.3114  -3.1391  -3.0649  -1.3302
    -1.1495   1.3925   3.3554   3.7730

     occupation numbers 
     1.0000   1.0000   1.0000   1.0000   1.0000   1.0000   1.0000   1.0000
     1.0000   1.0000   1.0000   1.0000   1.0000   1.0000   1.0000   0.0000
     0.0000   0.0000   0.0000   0.0000

          k =-0.0625-0.6134 0.0000 ( 48239 PWs)   bands (ev):

  -104.6314 -64.9662 -64.9558 -64.9554 -14.4586 -14.2267  -7.3408  -6.3795
    -4.7398  -4.5343  -4.4616  -4.2992  -3.2999  -3.1745  -3.1384  -1.2503
    -1.1700   1.2595   3.3289   3.8833

     occupation numbers 
     1.0000   1.0000   1.0000   1.0000   1.0000   1.0000   1.0000   1.0000
     1.0000   1.0000   1.0000   1.0000   1.0000   1.0000   1.0000   0.0000
     0.0000   0.0000   0.0000   0.0000

          k =-0.0625-0.5413 0.0000 ( 48239 PWs)   bands (ev):

  -104.6314 -64.9662 -64.9558 -64.9554 -14.4586 -14.2267  -7.3408  -6.3795
    -4.7398  -4.5343  -4.4616  -4.2992  -3.2999  -3.1745  -3.1384  -1.2503
    -1.1700   1.2595   3.3289   3.8833

     occupation numbers 
     1.0000   1.0000   1.0000   1.0000   1.0000   1.0000   1.0000   1.0000
     1.0000   1.0000   1.0000   1.0000   1.0000   1.0000   1.0000   0.0000
     0.0000   0.0000   0.0000   0.0000

          k =-0.0625-0.4691 0.0000 ( 48179 PWs)   bands (ev):

  -104.6314 -64.9662 -64.9557 -64.9554 -14.5938 -14.2204  -7.1354  -6.2813
    -4.9223  -4.5728  -4.3743  -4.1038  -3.3114  -3.1391  -3.0649  -1.3302
    -1.1495   1.3925   3.3554   3.7730

     occupation numbers 
     1.0000   1.0000   1.0000   1.0000   1.0000   1.0000   1.0000   1.0000
     1.0000   1.0000   1.0000   1.0000   1.0000   1.0000   1.0000   0.0000
     0.0000   0.0000   0.0000   0.0000

          k =-0.0625-0.3969 0.0000 ( 48195 PWs)   bands (ev):

  -104.6314 -64.9662 -64.9557 -64.9554 -14.7884 -14.2532  -6.7745  -6.1175
    -5.0965  -4.5850  -4.2232  -3.8766  -3.3218  -3.0553  -2.9805  -1.4378
    -1.1515   1.6675   3.3377   3.7601

     occupation numbers 
     1.0000   1.0000   1.0000   1.0000   1.0000   1.0000   1.0000   1.0000
     1.0000   1.0000   1.0000   1.0000   1.0000   1.0000   1.0000   0.0000
     0.0000   0.0000   0.0000   0.0000

          k =-0.0625-0.3248 0.0000 ( 48173 PWs)   bands (ev):

  -104.6314 -64.9662 -64.9556 -64.9553 -14.9994 -14.3213  -6.4203  -5.9083
    -5.0863  -4.5780  -4.0519  -3.6226  -3.3221  -2.9614  -2.8983  -1.5435
    -1.1570   2.0691   3.2349   3.5034

     occupation numbers 
     1.0000   1.0000   1.0000   1.0000   1.0000   1.0000   1.0000   1.0000
     1.0000   1.0000   1.0000   1.0000   1.0000   1.0000   1.0000   0.0000
     0.0000   0.0000   0.0000   0.0000

          k =-0.0625-0.2526 0.0000 ( 48148 PWs)   bands (ev):

  -104.6314 -64.9662 -64.9555 -64.9553 -15.1978 -14.4051  -6.3549  -5.5516
    -4.7744  -4.5646  -3.8665  -3.4030  -3.3114  -2.8928  -2.8119  -1.5741
    -1.1425   2.5466   2.9761   3.2259

     occupation numbers 
     1.0000   1.0000   1.0000   1.0000   1.0000   1.0000   1.0000   1.0000
     1.0000   1.0000   1.0000   1.0000   1.0000   1.0000   1.0000   0.0000
     0.0000   0.0000   0.0000   0.0000

          k =-0.0625-0.1804 0.0000 ( 48136 PWs)   bands (ev):

  -104.6314 -64.9662 -64.9554 -64.9553 -15.3627 -14.4854  -6.4531  -5.1769
    -4.5711  -4.2319  -3.6770  -3.3160  -3.3020  -2.8373  -2.7304  -1.4586
    -1.0872   2.6062   2.9865   3.0902

     occupation numbers 
     1.0000   1.0000   1.0000   1.0000   1.0000   1.0000   1.0000   1.0000
     1.0000   1.0000   1.0000   1.0000   1.0000   1.0000   1.0000   0.0000
     0.0000   0.0000   0.0000   0.0000

          k =-0.0625-0.1083 0.0000 ( 48119 PWs)   bands (ev):

  -104.6314 -64.9663 -64.9553 -64.9553 -15.4798 -14.5471  -6.5552  -4.8751
    -4.5675  -3.7140  -3.5100  -3.3745  -3.2897  -2.7765  -2.6642  -1.2417
    -0.9869   2.2735   2.8715   3.2342

     occupation numbers 
     1.0000   1.0000   1.0000   1.0000   1.0000   1.0000   1.0000   1.0000
     1.0000   1.0000   1.0000   1.0000   1.0000   1.0000   1.0000   0.0000
     0.0000   0.0000   0.0000   0.0000

     the Fermi energy is    -1.7825 ev
     (compare with:    -1.7810 eV, computed in scf)

     Writing all to output data dir ./tmp/csp.save/
 
     init_run     :      0.99s CPU      1.04s WALL (       1 calls)
     electrons    :    191.43s CPU    192.58s WALL (       1 calls)

     Called by init_run:
     wfcinit      :      0.00s CPU      0.01s WALL (       1 calls)
     wfcinit:atom :      0.35s CPU      0.38s WALL (     512 calls)
     wfcinit:wfcr :      8.75s CPU      8.84s WALL (     512 calls)
     potinit      :      0.07s CPU      0.10s WALL (       1 calls)
     hinit0       :      0.70s CPU      0.71s WALL (       1 calls)

     Called by electrons:
     c_bands      :    191.43s CPU    192.57s WALL (       1 calls)
     v_of_rho     :      0.06s CPU      0.07s WALL (       1 calls)
     v_h          :      0.00s CPU      0.00s WALL (       1 calls)
     v_xc         :      0.06s CPU      0.07s WALL (       1 calls)

     Called by c_bands:
     init_us_2    :      0.51s CPU      0.55s WALL (     512 calls)
     init_us_2:cp :      0.50s CPU      0.55s WALL (     512 calls)
     cegterg      :    177.66s CPU    178.54s WALL (    1049 calls)

     Called by sum_band:

     Called by *egterg:
     cdiaghg      :      8.94s CPU      8.98s WALL (   17765 calls)
     cegterg:over :     12.19s CPU     12.24s WALL (   17253 calls)
     cegterg:upda :      6.00s CPU      6.04s WALL (   17253 calls)
     cegterg:last :      7.05s CPU      7.07s WALL (    8286 calls)
     h_psi        :    146.22s CPU    147.04s WALL (   18814 calls)
     g_psi        :      1.35s CPU      1.36s WALL (   17253 calls)

     Called by h_psi:
     h_psi:calbec :     11.52s CPU     11.57s WALL (   18814 calls)
     vloc_psi     :    121.65s CPU    122.36s WALL (   18814 calls)
     add_vuspsi   :     11.29s CPU     11.35s WALL (   18814 calls)

     General routines
     calbec       :     11.47s CPU     11.53s WALL (   18814 calls)
     fft          :      0.11s CPU      0.12s WALL (      21 calls)
     ffts         :      0.00s CPU      0.00s WALL (       2 calls)
     fftw         :    100.47s CPU    101.06s WALL (  336906 calls)
     interpolate  :      0.01s CPU      0.01s WALL (       2 calls)
     davcio       :      0.48s CPU      0.61s WALL (    1024 calls)
 
     Parallel routines
 
     PWSCF        :   3m17.27s CPU   3m22.17s WALL

 
   This run was terminated on:  15:49:40  27Jun2023            

=------------------------------------------------------------------------------=
   JOB DONE.
=------------------------------------------------------------------------------=
