
     Program PWSCF v.7.1 starts on 26Jun2023 at 23:16:17 

     This program is part of the open-source Quantum ESPRESSO suite
     for quantum simulation of materials; please cite
         "P. Giannozzi et al., J. Phys.:Condens. Matter 21 395502 (2009);
         "P. Giannozzi et al., J. Phys.:Condens. Matter 29 465901 (2017);
         "P. Giannozzi et al., J. Chem. Phys. 152 154105 (2020);
          URL http://www.quantum-espresso.org", 
     in publications or presentations arising from this work. More details at
     http://www.quantum-espresso.org/quote

     Parallel version (MPI & OpenMP), running on      20 processor cores
     Number of MPI processes:                20
     Threads/MPI process:                     1

     MPI processes distributed on     1 nodes
     194636 MiB available memory on the printing compute node when the environment starts
 
     Reading input from input/nscf.in

     Current dimensions of program PWSCF are:
     Max number of different atomic species (ntypx) = 10
     Max number of k-points (npk) =  40000
     Max angular momentum in pseudopotentials (lmaxx) =  4

     Atomic positions and unit cell read from directory:
     ./tmp/csp.save/
     Atomic positions from file used, from input discarded
 
     Message from routine setup:
     using ibrav=0 with symmetry is DISCOURAGED, use correct ibrav instead
 
     R & G space division:  proc/nbgrp/npool/nimage =      20
     Subspace diagonalization in iterative solution of the eigenvalue problem:
     a serial algorithm will be used

 
     Parallelization info
     --------------------
     sticks:   dense  smooth     PW     G-vecs:    dense   smooth      PW
     Min          93      89     24                20481    19267    2770
     Max          94      90     25                20502    19300    2795
     Sum        1879    1789    499               409943   385631   55807
 
     Using Slab Decomposition
 


     bravais-lattice index     =            0
     lattice parameter (alat)  =       7.3605  a.u.
     unit-cell volume          =    2170.2486 (a.u.)^3
     number of atoms/cell      =            3
     number of atomic types    =            2
     number of electrons       =        32.00
     number of Kohn-Sham states=           20
     kinetic-energy cutoff     =     120.0000  Ry
     charge density cutoff     =     500.0000  Ry
     Exchange-correlation= PBE
                           (   1   4   3   4   0   0   0)

     celldm(1)=   7.360481  celldm(2)=   0.000000  celldm(3)=   0.000000
     celldm(4)=   0.000000  celldm(5)=   0.000000  celldm(6)=   0.000000

     crystal axes: (cart. coord. in units of alat)
               a(1) = (   1.000000   0.000000   0.000000 )  
               a(2) = (  -0.500000   0.866025   0.000000 )  
               a(3) = (   0.000000   0.000000   6.284350 )  

     reciprocal axes: (cart. coord. in units 2 pi/alat)
               b(1) = (  1.000000  0.577350  0.000000 )  
               b(2) = (  0.000000  1.154701  0.000000 )  
               b(3) = (  0.000000  0.000000  0.159125 )  


     PseudoPot. # 1 for Ni read from file:
     ../../pseudo/Ni.upf
     MD5 check sum: 14a7e289c5fff9cacaba393040e62f02
     Pseudo is Norm-conserving + core correction, Zval = 18.0
     Generated using ONCVPSP code by D. R. Hamann
     Using radial grid of 1372 points,  6 beta functions with: 
                l(1) =   0
                l(2) =   0
                l(3) =   1
                l(4) =   1
                l(5) =   2
                l(6) =   2

     PseudoPot. # 2 for I  read from file:
     ../../pseudo/I.upf
     MD5 check sum: 301f7009ca0a2b18b0adf53dca02d42f
     Pseudo is Norm-conserving + core correction, Zval =  7.0
     Generated using ONCVPSP code by D. R. Hamann
     Using radial grid of 1210 points,  6 beta functions with: 
                l(1) =   0
                l(2) =   0
                l(3) =   1
                l(4) =   1
                l(5) =   2
                l(6) =   2

     atomic species   valence    mass     pseudopotential
        Ni            18.00    58.69340     Ni( 1.00)
        I              7.00   126.90447     I ( 1.00)

     Starting magnetic structure 
     atomic species   magnetization
        Ni           0.278
        I            0.100

     12 Sym. Ops., with inversion, found


                                    s                        frac. trans.

      isym =  1     identity                                     

 cryst.   s( 1) = (     1          0          0      )
                  (     0          1          0      )
                  (     0          0          1      )

 cart.    s( 1) = (  1.0000000 -0.0000000  0.0000000 )
                  (  0.0000000  1.0000000  0.0000000 )
                  (  0.0000000  0.0000000  1.0000000 )


      isym =  2     180 deg rotation - cart. axis [1,0,0]        

 cryst.   s( 2) = (     1          0          0      )
                  (    -1         -1          0      )
                  (     0          0         -1      )

 cart.    s( 2) = (  1.0000000  0.0000000  0.0000000 )
                  (  0.0000000 -1.0000000  0.0000000 )
                  (  0.0000000  0.0000000 -1.0000000 )


      isym =  3     120 deg rotation - cryst. axis [0,0,1]       

 cryst.   s( 3) = (     0          1          0      )
                  (    -1         -1          0      )
                  (     0          0          1      )

 cart.    s( 3) = ( -0.5000000 -0.8660254  0.0000000 )
                  (  0.8660254 -0.5000000  0.0000000 )
                  (  0.0000000  0.0000000  1.0000000 )


      isym =  4     120 deg rotation - cryst. axis [0,0,-1]      

 cryst.   s( 4) = (    -1         -1          0      )
                  (     1          0          0      )
                  (     0          0          1      )

 cart.    s( 4) = ( -0.5000000  0.8660254  0.0000000 )
                  ( -0.8660254 -0.5000000  0.0000000 )
                  (  0.0000000  0.0000000  1.0000000 )


      isym =  5     180 deg rotation - cryst. axis [0,1,0]       

 cryst.   s( 5) = (    -1         -1          0      )
                  (     0          1          0      )
                  (     0          0         -1      )

 cart.    s( 5) = ( -0.5000000 -0.8660254  0.0000000 )
                  ( -0.8660254  0.5000000  0.0000000 )
                  (  0.0000000  0.0000000 -1.0000000 )


      isym =  6     180 deg rotation - cryst. axis [1,1,0]       

 cryst.   s( 6) = (     0          1          0      )
                  (     1          0          0      )
                  (     0          0         -1      )

 cart.    s( 6) = ( -0.5000000  0.8660254  0.0000000 )
                  (  0.8660254  0.5000000  0.0000000 )
                  (  0.0000000  0.0000000 -1.0000000 )


      isym =  7     inversion                                    

 cryst.   s( 7) = (    -1          0          0      )
                  (     0         -1          0      )
                  (     0          0         -1      )

 cart.    s( 7) = ( -1.0000000  0.0000000  0.0000000 )
                  (  0.0000000 -1.0000000  0.0000000 )
                  (  0.0000000  0.0000000 -1.0000000 )


      isym =  8     inv. 180 deg rotation - cart. axis [1,0,0]   

 cryst.   s( 8) = (    -1          0          0      )
                  (     1          1          0      )
                  (     0          0          1      )

 cart.    s( 8) = ( -1.0000000 -0.0000000  0.0000000 )
                  (  0.0000000  1.0000000  0.0000000 )
                  (  0.0000000  0.0000000  1.0000000 )


      isym =  9     inv. 120 deg rotation - cryst. axis [0,0,1]  

 cryst.   s( 9) = (     0         -1          0      )
                  (     1          1          0      )
                  (     0          0         -1      )

 cart.    s( 9) = (  0.5000000  0.8660254  0.0000000 )
                  ( -0.8660254  0.5000000  0.0000000 )
                  (  0.0000000  0.0000000 -1.0000000 )


      isym = 10     inv. 120 deg rotation - cryst. axis [0,0,-1] 

 cryst.   s(10) = (     1          1          0      )
                  (    -1          0          0      )
                  (     0          0         -1      )

 cart.    s(10) = (  0.5000000 -0.8660254  0.0000000 )
                  (  0.8660254  0.5000000  0.0000000 )
                  (  0.0000000  0.0000000 -1.0000000 )


      isym = 11     inv. 180 deg rotation - cryst. axis [0,1,0]  

 cryst.   s(11) = (     1          1          0      )
                  (     0         -1          0      )
                  (     0          0          1      )

 cart.    s(11) = (  0.5000000  0.8660254  0.0000000 )
                  (  0.8660254 -0.5000000  0.0000000 )
                  (  0.0000000  0.0000000  1.0000000 )


      isym = 12     inv. 180 deg rotation - cryst. axis [1,1,0]  

 cryst.   s(12) = (     0         -1          0      )
                  (    -1          0          0      )
                  (     0          0          1      )

 cart.    s(12) = (  0.5000000 -0.8660254  0.0000000 )
                  ( -0.8660254 -0.5000000  0.0000000 )
                  (  0.0000000  0.0000000  1.0000000 )


   Cartesian axes

     site n.     atom                  positions (alat units)
         1           Ni  tau(   1) = (   0.0000000   0.0000000   3.1421749  )
         2           I   tau(   2) = (  -0.0000000   0.5773503   3.5289144  )
         3           I   tau(   3) = (   0.5000000   0.2886751   2.7554354  )

   Crystallographic axes

     site n.     atom                  positions (cryst. coord.)
         1           Ni  tau(   1) = (  0.0000000  0.0000000  0.5000000  )
         2           I   tau(   2) = (  0.3333333  0.6666667  0.5615401  )
         3           I   tau(   3) = (  0.6666667  0.3333333  0.4384599  )

     number of k points=    30  Marzari-Vanderbilt smearing, width (Ry)=  0.0015
                       cart. coord. in units 2pi/alat
        k(    1) = (   0.0000000   0.0000000   0.0000000), wk =   0.0039062
        k(    2) = (   0.0000000   0.0721688   0.0000000), wk =   0.0234375
        k(    3) = (   0.0000000   0.1443376   0.0000000), wk =   0.0234375
        k(    4) = (   0.0000000   0.2165064   0.0000000), wk =   0.0234375
        k(    5) = (   0.0000000   0.2886751   0.0000000), wk =   0.0234375
        k(    6) = (   0.0000000   0.3608439   0.0000000), wk =   0.0234375
        k(    7) = (   0.0000000   0.4330127   0.0000000), wk =   0.0234375
        k(    8) = (   0.0000000   0.5051815   0.0000000), wk =   0.0234375
        k(    9) = (   0.0000000  -0.5773503   0.0000000), wk =   0.0117188
        k(   10) = (   0.0625000   0.1082532   0.0000000), wk =   0.0234375
        k(   11) = (   0.0625000   0.1804220   0.0000000), wk =   0.0468750
        k(   12) = (   0.0625000   0.2525907   0.0000000), wk =   0.0468750
        k(   13) = (   0.0625000   0.3247595   0.0000000), wk =   0.0468750
        k(   14) = (   0.0625000   0.3969283   0.0000000), wk =   0.0468750
        k(   15) = (   0.0625000   0.4690971   0.0000000), wk =   0.0468750
        k(   16) = (   0.0625000   0.5412659   0.0000000), wk =   0.0468750
        k(   17) = (   0.1250000   0.2165064   0.0000000), wk =   0.0234375
        k(   18) = (   0.1250000   0.2886751   0.0000000), wk =   0.0468750
        k(   19) = (   0.1250000   0.3608439   0.0000000), wk =   0.0468750
        k(   20) = (   0.1250000   0.4330127   0.0000000), wk =   0.0468750
        k(   21) = (   0.1250000   0.5051815   0.0000000), wk =   0.0468750
        k(   22) = (   0.1250000   0.5773503   0.0000000), wk =   0.0234375
        k(   23) = (   0.1875000   0.3247595   0.0000000), wk =   0.0234375
        k(   24) = (   0.1875000   0.3969283   0.0000000), wk =   0.0468750
        k(   25) = (   0.1875000   0.4690971   0.0000000), wk =   0.0468750
        k(   26) = (   0.1875000   0.5412659   0.0000000), wk =   0.0468750
        k(   27) = (   0.2500000   0.4330127   0.0000000), wk =   0.0234375
        k(   28) = (   0.2500000   0.5051815   0.0000000), wk =   0.0468750
        k(   29) = (   0.2500000   0.5773503   0.0000000), wk =   0.0234375
        k(   30) = (   0.3125000   0.5412659   0.0000000), wk =   0.0234375

                       cryst. coord.
        k(    1) = (   0.0000000   0.0000000   0.0000000), wk =   0.0039062
        k(    2) = (   0.0000000   0.0625000   0.0000000), wk =   0.0234375
        k(    3) = (   0.0000000   0.1250000   0.0000000), wk =   0.0234375
        k(    4) = (   0.0000000   0.1875000   0.0000000), wk =   0.0234375
        k(    5) = (   0.0000000   0.2500000   0.0000000), wk =   0.0234375
        k(    6) = (   0.0000000   0.3125000   0.0000000), wk =   0.0234375
        k(    7) = (   0.0000000   0.3750000   0.0000000), wk =   0.0234375
        k(    8) = (   0.0000000   0.4375000   0.0000000), wk =   0.0234375
        k(    9) = (   0.0000000  -0.5000000   0.0000000), wk =   0.0117188
        k(   10) = (   0.0625000   0.0625000   0.0000000), wk =   0.0234375
        k(   11) = (   0.0625000   0.1250000   0.0000000), wk =   0.0468750
        k(   12) = (   0.0625000   0.1875000   0.0000000), wk =   0.0468750
        k(   13) = (   0.0625000   0.2500000   0.0000000), wk =   0.0468750
        k(   14) = (   0.0625000   0.3125000   0.0000000), wk =   0.0468750
        k(   15) = (   0.0625000   0.3750000   0.0000000), wk =   0.0468750
        k(   16) = (   0.0625000   0.4375000   0.0000000), wk =   0.0468750
        k(   17) = (   0.1250000   0.1250000   0.0000000), wk =   0.0234375
        k(   18) = (   0.1250000   0.1875000   0.0000000), wk =   0.0468750
        k(   19) = (   0.1250000   0.2500000   0.0000000), wk =   0.0468750
        k(   20) = (   0.1250000   0.3125000   0.0000000), wk =   0.0468750
        k(   21) = (   0.1250000   0.3750000   0.0000000), wk =   0.0468750
        k(   22) = (   0.1250000   0.4375000   0.0000000), wk =   0.0234375
        k(   23) = (   0.1875000   0.1875000   0.0000000), wk =   0.0234375
        k(   24) = (   0.1875000   0.2500000   0.0000000), wk =   0.0468750
        k(   25) = (   0.1875000   0.3125000   0.0000000), wk =   0.0468750
        k(   26) = (   0.1875000   0.3750000   0.0000000), wk =   0.0468750
        k(   27) = (   0.2500000   0.2500000   0.0000000), wk =   0.0234375
        k(   28) = (   0.2500000   0.3125000   0.0000000), wk =   0.0468750
        k(   29) = (   0.2500000   0.3750000   0.0000000), wk =   0.0234375
        k(   30) = (   0.3125000   0.3125000   0.0000000), wk =   0.0234375

     Dense  grid:   409943 G-vectors     FFT dimensions: (  54,  54, 360)

     Smooth grid:   385631 G-vectors     FFT dimensions: (  54,  54, 324)

     Dynamical RAM for                 wfc:       0.73 MB

     Dynamical RAM for     wfc (w. buffer):       0.73 MB

     Dynamical RAM for           str. fact:       0.63 MB

     Dynamical RAM for           local pot:       0.00 MB

     Dynamical RAM for          nlocal pot:       1.98 MB

     Dynamical RAM for                qrad:       3.59 MB

     Dynamical RAM for          rho,v,vnew:       4.28 MB

     Dynamical RAM for           G-vectors:       1.32 MB

     Dynamical RAM for          h,s,v(r/c):       0.07 MB

     Dynamical RAM for          <psi|beta>:       0.02 MB

     Dynamical RAM for                 psi:       1.47 MB

     Dynamical RAM for                hpsi:       1.47 MB

     Dynamical RAM for      wfcinit/wfcrot:       1.48 MB

     Estimated static dynamical RAM per process >      15.87 MB

     Estimated max dynamical RAM per process >      18.90 MB

     Estimated total dynamical RAM >     378.05 MB
     Generating pointlists ...
     new r_m :   0.2867 (alat units)  2.1099 (a.u.) for type    1
     new r_m :   0.2867 (alat units)  2.1099 (a.u.) for type    2

     The potential is recalculated from file :
     ./tmp/csp.save/charge-density

     Starting wfcs are   18 randomized atomic wfcs +    2 random wfcs

     Band Structure Calculation
     Davidson diagonalization with overlap

     Computing kpt #:     1  of    60
     total cpu time spent up to now is        1.9 secs

     Computing kpt #:     2  of    60
     total cpu time spent up to now is        2.3 secs

     Computing kpt #:     3  of    60
     total cpu time spent up to now is        2.7 secs

     Computing kpt #:     4  of    60
     total cpu time spent up to now is        3.1 secs

     Computing kpt #:     5  of    60
     total cpu time spent up to now is        3.4 secs

     Computing kpt #:     6  of    60
     total cpu time spent up to now is        3.8 secs

     Computing kpt #:     7  of    60
     total cpu time spent up to now is        4.1 secs

     Computing kpt #:     8  of    60
     total cpu time spent up to now is        4.4 secs

     Computing kpt #:     9  of    60
     total cpu time spent up to now is        4.8 secs

     Computing kpt #:    10  of    60
     total cpu time spent up to now is        5.2 secs

     Computing kpt #:    11  of    60
     total cpu time spent up to now is        5.6 secs

     Computing kpt #:    12  of    60
     total cpu time spent up to now is        6.0 secs

     Computing kpt #:    13  of    60
     total cpu time spent up to now is        6.4 secs

     Computing kpt #:    14  of    60
     total cpu time spent up to now is        6.7 secs

     Computing kpt #:    15  of    60
     total cpu time spent up to now is        7.1 secs

     Computing kpt #:    16  of    60
     total cpu time spent up to now is        7.5 secs

     Computing kpt #:    17  of    60
     total cpu time spent up to now is        7.8 secs

     Computing kpt #:    18  of    60
     total cpu time spent up to now is        8.2 secs

     Computing kpt #:    19  of    60
     total cpu time spent up to now is        8.6 secs

     Computing kpt #:    20  of    60
     total cpu time spent up to now is        9.0 secs

     Computing kpt #:    21  of    60
     total cpu time spent up to now is        9.3 secs

     Computing kpt #:    22  of    60
     total cpu time spent up to now is        9.7 secs

     Computing kpt #:    23  of    60
     total cpu time spent up to now is       10.1 secs

     Computing kpt #:    24  of    60
     total cpu time spent up to now is       10.4 secs

     Computing kpt #:    25  of    60
     total cpu time spent up to now is       10.9 secs

     Computing kpt #:    26  of    60
     total cpu time spent up to now is       11.2 secs

     Computing kpt #:    27  of    60
     total cpu time spent up to now is       11.6 secs

     Computing kpt #:    28  of    60
     total cpu time spent up to now is       12.0 secs

     Computing kpt #:    29  of    60
     total cpu time spent up to now is       12.4 secs

     Computing kpt #:    30  of    60
     total cpu time spent up to now is       12.7 secs

     Computing kpt #:    31  of    60
     total cpu time spent up to now is       13.0 secs

     Computing kpt #:    32  of    60
     total cpu time spent up to now is       13.5 secs

     Computing kpt #:    33  of    60
     total cpu time spent up to now is       13.9 secs

     Computing kpt #:    34  of    60
     total cpu time spent up to now is       14.2 secs

     Computing kpt #:    35  of    60
     total cpu time spent up to now is       14.6 secs

     Computing kpt #:    36  of    60
     total cpu time spent up to now is       15.0 secs

     Computing kpt #:    37  of    60
     total cpu time spent up to now is       15.3 secs

     Computing kpt #:    38  of    60
     total cpu time spent up to now is       15.7 secs

     Computing kpt #:    39  of    60
     total cpu time spent up to now is       16.0 secs

     Computing kpt #:    40  of    60
     total cpu time spent up to now is       16.4 secs

     Computing kpt #:    41  of    60
     total cpu time spent up to now is       16.7 secs

     Computing kpt #:    42  of    60
     total cpu time spent up to now is       17.0 secs

     Computing kpt #:    43  of    60
     total cpu time spent up to now is       17.4 secs

     Computing kpt #:    44  of    60
     total cpu time spent up to now is       17.7 secs

     Computing kpt #:    45  of    60
     total cpu time spent up to now is       18.0 secs

     Computing kpt #:    46  of    60
     total cpu time spent up to now is       18.3 secs

     Computing kpt #:    47  of    60
     total cpu time spent up to now is       18.7 secs

     Computing kpt #:    48  of    60
     total cpu time spent up to now is       19.0 secs

     Computing kpt #:    49  of    60
     total cpu time spent up to now is       19.3 secs

     Computing kpt #:    50  of    60
     total cpu time spent up to now is       19.7 secs

     Computing kpt #:    51  of    60
     total cpu time spent up to now is       20.0 secs

     Computing kpt #:    52  of    60
     total cpu time spent up to now is       20.4 secs

     Computing kpt #:    53  of    60
     total cpu time spent up to now is       20.7 secs

     Computing kpt #:    54  of    60
     total cpu time spent up to now is       21.1 secs

     Computing kpt #:    55  of    60
     total cpu time spent up to now is       21.5 secs

     Computing kpt #:    56  of    60
     total cpu time spent up to now is       21.9 secs

     Computing kpt #:    57  of    60
     total cpu time spent up to now is       22.3 secs

     Computing kpt #:    58  of    60
     total cpu time spent up to now is       22.6 secs

     Computing kpt #:    59  of    60
     total cpu time spent up to now is       23.0 secs

     Computing kpt #:    60  of    60
     total cpu time spent up to now is       23.3 secs

     ethr =  3.12E-09,  avg # of iterations = 33.5

     total cpu time spent up to now is       23.3 secs

     End of band structure calculation

 ------ SPIN UP ------------


          k = 0.0000 0.0000 0.0000 ( 48107 PWs)   bands (ev):

  -106.0021 -66.4758 -66.4223 -66.4223 -15.7961 -14.8538  -6.8631  -5.8198
    -5.8198  -4.2877  -4.2877  -3.9217  -3.7919  -2.8819  -2.8819  -1.9863
    -1.9863   1.7661   2.5039   2.6845

     occupation numbers 
     1.0000   1.0000   1.0000   1.0000   1.0000   1.0000   1.0000   1.0000
     1.0000   1.0000   1.0000   1.0000   1.0000   1.0000   1.0000   1.0000
     1.0000   0.0000   0.0000   0.0000

          k = 0.0000 0.0722 0.0000 ( 48113 PWs)   bands (ev):

  -106.0021 -66.4758 -66.4224 -66.4223 -15.7657 -14.8371  -6.8319  -5.8591
    -5.8165  -4.3345  -4.3054  -3.9639  -3.7404  -3.0403  -2.9190  -2.1623
    -2.0121   1.9115   2.7033   2.7537

     occupation numbers 
     1.0000   1.0000   1.0000   1.0000   1.0000   1.0000   1.0000   1.0000
     1.0000   1.0000   1.0000   1.0000   1.0000   1.0000   1.0000   1.0000
     1.0000   0.0000   0.0000   0.0000

          k = 0.0000 0.1443 0.0000 ( 48142 PWs)   bands (ev):

  -106.0021 -66.4758 -66.4224 -66.4224 -15.6767 -14.7894  -6.7438  -5.9643
    -5.8074  -4.5496  -4.3532  -4.0720  -3.6188  -3.3269  -3.0298  -2.5805
    -2.0732   2.2366   2.8213   2.9547

     occupation numbers 
     1.0000   1.0000   1.0000   1.0000   1.0000   1.0000   1.0000   1.0000
     1.0000   1.0000   1.0000   1.0000   1.0000   1.0000   1.0000   1.0000
     1.0000   0.0000   0.0000   0.0000

          k = 0.0000 0.2165 0.0000 ( 48158 PWs)   bands (ev):

  -106.0021 -66.4758 -66.4225 -66.4224 -15.5354 -14.7180  -6.6226  -6.1109
    -5.7950  -5.0239  -4.4167  -4.1571  -3.5583  -3.5302  -3.2056  -2.9649
    -2.1390   2.4328   2.6707   3.0045

     occupation numbers 
     1.0000   1.0000   1.0000   1.0000   1.0000   1.0000   1.0000   1.0000
     1.0000   1.0000   1.0000   1.0000   1.0000   1.0000   1.0000   1.0000
     1.0000   0.0000   0.0000   0.0000

          k = 0.0000 0.2887 0.0000 ( 48148 PWs)   bands (ev):

  -106.0021 -66.4757 -66.4226 -66.4224 -15.3532 -14.6349  -6.5565  -6.2796
    -5.7829  -5.5190  -4.4769  -4.2140  -3.9058  -3.6035  -3.4221  -2.9606
    -2.1917   1.9537   2.9322   3.2258

     occupation numbers 
     1.0000   1.0000   1.0000   1.0000   1.0000   1.0000   1.0000   1.0000
     1.0000   1.0000   1.0000   1.0000   1.0000   1.0000   1.0000   1.0000
     1.0000   0.0000   0.0000   0.0000

          k = 0.0000 0.3608 0.0000 ( 48214 PWs)   bands (ev):

  -106.0021 -66.4757 -66.4227 -66.4224 -15.1476 -14.5573  -6.7880  -6.4083
    -5.7746  -5.6977  -4.5156  -4.3668  -4.2054  -3.6891  -3.6477  -2.7982
    -2.2283   1.4905   3.0591   3.4810

     occupation numbers 
     1.0000   1.0000   1.0000   1.0000   1.0000   1.0000   1.0000   1.0000
     1.0000   1.0000   1.0000   1.0000   1.0000   1.0000   1.0000   1.0000
     1.0000   0.0000   0.0000   0.0000

          k = 0.0000 0.4330 0.0000 ( 48212 PWs)   bands (ev):

  -106.0021 -66.4757 -66.4228 -66.4224 -14.9431 -14.5052  -7.1855  -6.5087
    -5.7714  -5.6321  -4.6219  -4.5223  -4.2597  -3.8530  -3.7913  -2.6533
    -2.2518   1.1363   3.0531   3.4996

     occupation numbers 
     1.0000   1.0000   1.0000   1.0000   1.0000   1.0000   1.0000   1.0000
     1.0000   1.0000   1.0000   1.0000   1.0000   1.0000   1.0000   1.0000
     1.0000   0.0000   0.0000   0.0000

          k = 0.0000 0.5052 0.0000 ( 48214 PWs)   bands (ev):

  -106.0021 -66.4757 -66.4228 -66.4225 -14.7732 -14.4938  -7.4834  -6.5822
    -5.7716  -5.5833  -4.6846  -4.5019  -4.3014  -4.0082  -3.8961  -2.5648
    -2.2647   0.9210   2.9927   3.5352

     occupation numbers 
     1.0000   1.0000   1.0000   1.0000   1.0000   1.0000   1.0000   1.0000
     1.0000   1.0000   1.0000   1.0000   1.0000   1.0000   1.0000   1.0000
     1.0000   0.0000   0.0000   0.0000

          k = 0.0000-0.5774 0.0000 ( 48254 PWs)   bands (ev):

  -106.0021 -66.4757 -66.4228 -66.4225 -14.6958 -14.5054  -7.5905  -6.6089
    -5.7722  -5.5818  -4.6557  -4.4853  -4.3304  -4.0708  -3.9453  -2.5365
    -2.2689   0.8501   2.9585   3.6787

     occupation numbers 
     1.0000   1.0000   1.0000   1.0000   1.0000   1.0000   1.0000   1.0000
     1.0000   1.0000   1.0000   1.0000   1.0000   1.0000   1.0000   1.0000
     1.0000   0.0000   0.0000   0.0000

          k = 0.0625 0.1083 0.0000 ( 48119 PWs)   bands (ev):

  -106.0021 -66.4758 -66.4224 -66.4224 -15.7060 -14.8049  -6.7721  -5.9294
    -5.8122  -4.4126  -4.3941  -4.0384  -3.6532  -3.2483  -3.0255  -2.3878
    -2.1047   2.1453   2.7899   3.1083

     occupation numbers 
     1.0000   1.0000   1.0000   1.0000   1.0000   1.0000   1.0000   1.0000
     1.0000   1.0000   1.0000   1.0000   1.0000   1.0000   1.0000   1.0000
     1.0000   0.0000   0.0000   0.0000

          k = 0.0625 0.1804 0.0000 ( 48136 PWs)   bands (ev):

  -106.0021 -66.4758 -66.4225 -66.4224 -15.5908 -14.7452  -6.6657  -6.0498
    -5.8074  -4.7541  -4.5055  -4.1079  -3.5460  -3.4556  -3.2439  -2.6804
    -2.2262   2.4710   2.8662   2.9528

     occupation numbers 
     1.0000   1.0000   1.0000   1.0000   1.0000   1.0000   1.0000   1.0000
     1.0000   1.0000   1.0000   1.0000   1.0000   1.0000   1.0000   1.0000
     1.0000   0.0000   0.0000   0.0000

          k = 0.0625 0.2526 0.0000 ( 48148 PWs)   bands (ev):

  -106.0021 -66.4757 -66.4225 -66.4224 -15.4289 -14.6676  -6.5585  -6.2000
    -5.8060  -5.2705  -4.6088  -4.1409  -3.7254  -3.5741  -3.3690  -2.8927
    -2.2933   2.3376   2.8725   3.1181

     occupation numbers 
     1.0000   1.0000   1.0000   1.0000   1.0000   1.0000   1.0000   1.0000
     1.0000   1.0000   1.0000   1.0000   1.0000   1.0000   1.0000   1.0000
     1.0000   0.0000   0.0000   0.0000

          k = 0.0625 0.3248 0.0000 ( 48173 PWs)   bands (ev):

  -106.0021 -66.4757 -66.4226 -66.4224 -15.2345 -14.5866  -6.6194  -6.3508
    -5.8064  -5.6209  -4.6974  -4.1721  -4.1046  -3.6756  -3.5169  -2.8523
    -2.3258   1.8554   3.1008   3.3893

     occupation numbers 
     1.0000   1.0000   1.0000   1.0000   1.0000   1.0000   1.0000   1.0000
     1.0000   1.0000   1.0000   1.0000   1.0000   1.0000   1.0000   1.0000
     1.0000   0.0000   0.0000   0.0000

          k = 0.0625 0.3969 0.0000 ( 48195 PWs)   bands (ev):

  -106.0021 -66.4757 -66.4227 -66.4224 -15.0284 -14.5207  -6.9720  -6.4571
    -5.7847  -5.6577  -4.7574  -4.4685  -4.1595  -3.8191  -3.6755  -2.7247
    -2.3426   1.4426   3.1832   3.6110

     occupation numbers 
     1.0000   1.0000   1.0000   1.0000   1.0000   1.0000   1.0000   1.0000
     1.0000   1.0000   1.0000   1.0000   1.0000   1.0000   1.0000   1.0000
     1.0000   0.0000   0.0000   0.0000

          k = 0.0625 0.4691 0.0000 ( 48179 PWs)   bands (ev):

  -106.0021 -66.4757 -66.4228 -66.4225 -14.8389 -14.4888  -7.3301  -6.5420
    -5.7775  -5.5893  -4.7802  -4.6586  -4.1604  -3.9745  -3.7995  -2.6171
    -2.3587   1.1528   3.2006   3.5986

     occupation numbers 
     1.0000   1.0000   1.0000   1.0000   1.0000   1.0000   1.0000   1.0000
     1.0000   1.0000   1.0000   1.0000   1.0000   1.0000   1.0000   1.0000
     1.0000   0.0000   0.0000   0.0000

          k = 0.0625 0.5413 0.0000 ( 48239 PWs)   bands (ev):

  -106.0021 -66.4757 -66.4228 -66.4225 -14.7069 -14.4954  -7.5349  -6.5896
    -5.7721  -5.5745  -4.7842  -4.6796  -4.1834  -4.0483  -3.8940  -2.5521
    -2.3786   1.0074   3.1796   3.6926

     occupation numbers 
     1.0000   1.0000   1.0000   1.0000   1.0000   1.0000   1.0000   1.0000
     1.0000   1.0000   1.0000   1.0000   1.0000   1.0000   1.0000   1.0000
     1.0000   0.0000   0.0000   0.0000

          k = 0.1250 0.2165 0.0000 ( 48125 PWs)   bands (ev):

  -106.0021 -66.4757 -66.4225 -66.4224 -15.4548 -14.6792  -6.5662  -6.1636
    -5.8239  -5.0541  -4.7953  -4.1068  -3.6559  -3.5636  -3.3914  -2.6585
    -2.5167   2.6567   2.9089   3.0421

     occupation numbers 
     1.0000   1.0000   1.0000   1.0000   1.0000   1.0000   1.0000   1.0000
     1.0000   1.0000   1.0000   1.0000   1.0000   1.0000   1.0000   1.0000
     1.0000   0.0000   0.0000   0.0000

          k = 0.1250 0.2887 0.0000 ( 48141 PWs)   bands (ev):

  -106.0021 -66.4757 -66.4226 -66.4224 -15.2801 -14.6027  -6.5386  -6.2917
    -5.8472  -5.4294  -4.9832  -4.0987  -3.9691  -3.6739  -3.4181  -2.8024
    -2.5587   2.3675   3.1447   3.2694

     occupation numbers 
     1.0000   1.0000   1.0000   1.0000   1.0000   1.0000   1.0000   1.0000
     1.0000   1.0000   1.0000   1.0000   1.0000   1.0000   1.0000   1.0000
     1.0000   0.0000   0.0000   0.0000

          k = 0.1250 0.3608 0.0000 ( 48162 PWs)   bands (ev):

  -106.0021 -66.4757 -66.4227 -66.4225 -15.0839 -14.5317  -6.7557  -6.4058
    -5.8262  -5.6140  -5.0894  -4.3074  -4.0859  -3.8095  -3.5469  -2.8422
    -2.5096   1.9658   3.2718   3.6687

     occupation numbers 
     1.0000   1.0000   1.0000   1.0000   1.0000   1.0000   1.0000   1.0000
     1.0000   1.0000   1.0000   1.0000   1.0000   1.0000   1.0000   1.0000
     1.0000   0.0000   0.0000   0.0000

          k = 0.1250 0.4330 0.0000 ( 48177 PWs)   bands (ev):

  -106.0021 -66.4757 -66.4227 -66.4225 -14.8901 -14.4844  -7.1077  -6.4894
    -5.8049  -5.5913  -5.1538  -4.5958  -4.0636  -3.9584  -3.6775  -2.7871
    -2.4899   1.6201   3.4105   3.9404

     occupation numbers 
     1.0000   1.0000   1.0000   1.0000   1.0000   1.0000   1.0000   1.0000
     1.0000   1.0000   1.0000   1.0000   1.0000   1.0000   1.0000   1.0000
     1.0000   0.0000   0.0000   0.0000

          k = 0.1250 0.5052 0.0000 ( 48212 PWs)   bands (ev):

  -106.0021 -66.4757 -66.4228 -66.4225 -14.7299 -14.4749  -7.3784  -6.5424
    -5.7834  -5.5519  -5.2167  -4.7267  -4.0797  -4.0232  -3.7854  -2.7048
    -2.5205   1.3987   3.5749   3.9804

     occupation numbers 
     1.0000   1.0000   1.0000   1.0000   1.0000   1.0000   1.0000   1.0000
     1.0000   1.0000   1.0000   1.0000   1.0000   1.0000   1.0000   1.0000
     1.0000   0.0000   0.0000   0.0000

          k = 0.1250 0.5774 0.0000 ( 48240 PWs)   bands (ev):

  -106.0021 -66.4757 -66.4228 -66.4225 -14.6567 -14.4866  -7.4769  -6.5604
    -5.7595  -5.5627  -5.2481  -4.7394  -4.1266  -3.9947  -3.8407  -2.6401
    -2.5690   1.3241   3.6656   4.0164

     occupation numbers 
     1.0000   1.0000   1.0000   1.0000   1.0000   1.0000   1.0000   1.0000
     1.0000   1.0000   1.0000   1.0000   1.0000   1.0000   1.0000   1.0000
     1.0000   0.0000   0.0000   0.0000

          k = 0.1875 0.3248 0.0000 ( 48145 PWs)   bands (ev):

  -106.0021 -66.4757 -66.4227 -66.4225 -15.1032 -14.5357  -6.6585  -6.3785
    -5.8532  -5.5212  -5.3090  -4.2281  -4.0649  -3.8066  -3.4684  -2.9496
    -2.5688   2.3082   3.1782   3.6710

     occupation numbers 
     1.0000   1.0000   1.0000   1.0000   1.0000   1.0000   1.0000   1.0000
     1.0000   1.0000   1.0000   1.0000   1.0000   1.0000   1.0000   1.0000
     1.0000   0.0000   0.0000   0.0000

          k = 0.1875 0.3969 0.0000 ( 48173 PWs)   bands (ev):

  -106.0021 -66.4757 -66.4227 -66.4225 -14.9180 -14.4821  -6.9085  -6.4493
    -5.8588  -5.5689  -5.4450  -4.5151  -4.0348  -3.9406  -3.5786  -3.0143
    -2.5300   2.0727   3.2787   4.1232

     occupation numbers 
     1.0000   1.0000   1.0000   1.0000   1.0000   1.0000   1.0000   1.0000
     1.0000   1.0000   1.0000   1.0000   1.0000   1.0000   1.0000   1.0000
     1.0000   0.0000   0.0000   0.0000

          k = 0.1875 0.4691 0.0000 ( 48158 PWs)   bands (ev):

  -106.0021 -66.4757 -66.4227 -66.4225 -14.7496 -14.4576  -7.1668  -6.4925
    -5.8737  -5.5600  -5.5050  -4.7612  -4.0554  -3.9761  -3.6913  -2.9674
    -2.5530   1.8230   3.5112   4.3878

     occupation numbers 
     1.0000   1.0000   1.0000   1.0000   1.0000   1.0000   1.0000   1.0000
     1.0000   1.0000   1.0000   1.0000   1.0000   1.0000   1.0000   1.0000
     1.0000   0.0000   0.0000   0.0000

          k = 0.1875 0.5413 0.0000 ( 48174 PWs)   bands (ev):

  -106.0021 -66.4757 -66.4228 -66.4225 -14.6322 -14.4665  -7.3231  -6.5122
    -5.8065  -5.6627  -5.5158  -4.8714  -4.0991  -3.9295  -3.7762  -2.8927
    -2.6147   1.6796   3.8471   4.2689

     occupation numbers 
     1.0000   1.0000   1.0000   1.0000   1.0000   1.0000   1.0000   1.0000
     1.0000   1.0000   1.0000   1.0000   1.0000   1.0000   1.0000   1.0000
     1.0000   0.0000   0.0000   0.0000

          k = 0.2500 0.4330 0.0000 ( 48187 PWs)   bands (ev):

  -106.0021 -66.4757 -66.4227 -66.4225 -14.7571 -14.4512  -7.0448  -6.4671
    -6.0012  -5.6264  -5.4957  -4.7726  -4.0548  -3.9554  -3.6472  -3.0855
    -2.5636   2.0236   3.3664   4.6342

     occupation numbers 
     1.0000   1.0000   1.0000   1.0000   1.0000   1.0000   1.0000   1.0000
     1.0000   1.0000   1.0000   1.0000   1.0000   1.0000   1.0000   1.0000
     1.0000   0.0000   0.0000   0.0000

          k = 0.2500 0.5052 0.0000 ( 48229 PWs)   bands (ev):

  -106.0021 -66.4757 -66.4227 -66.4226 -14.6251 -14.4498  -7.1452  -6.4700
    -6.1381  -5.6499  -5.4718  -5.0097  -4.0881  -3.8961  -3.7261  -3.0350
    -2.6542   1.9003   3.6543   4.5526

     occupation numbers 
     1.0000   1.0000   1.0000   1.0000   1.0000   1.0000   1.0000   1.0000
     1.0000   1.0000   1.0000   1.0000   1.0000   1.0000   1.0000   1.0000
     1.0000   0.0000   0.0000   0.0000

          k = 0.2500 0.5774 0.0000 ( 48231 PWs)   bands (ev):

  -106.0021 -66.4757 -66.4227 -66.4226 -14.5611 -14.4658  -7.1834  -6.4742
    -6.1762  -5.6318  -5.4928  -5.1005  -4.0962  -3.8521  -3.7747  -2.9757
    -2.7251   1.8443   4.0000   4.1704

     occupation numbers 
     1.0000   1.0000   1.0000   1.0000   1.0000   1.0000   1.0000   1.0000
     1.0000   1.0000   1.0000   1.0000   1.0000   1.0000   1.0000   1.0000
     1.0000   0.0000   0.0000   0.0000

          k = 0.3125 0.5413 0.0000 ( 48231 PWs)   bands (ev):

  -106.0021 -66.4757 -66.4227 -66.4226 -14.5325 -14.4689  -7.0777  -6.4484
    -6.3933  -5.5509  -5.4521  -5.2731  -4.0934  -3.8282  -3.7707  -2.9665
    -2.7976   1.8883   3.9554   4.3168

     occupation numbers 
     1.0000   1.0000   1.0000   1.0000   1.0000   1.0000   1.0000   1.0000
     1.0000   1.0000   1.0000   1.0000   1.0000   1.0000   1.0000   1.0000
     1.0000   0.0000   0.0000   0.0000

 ------ SPIN DOWN ----------


          k = 0.0000 0.0000 0.0000 ( 48107 PWs)   bands (ev):

  -104.6314 -64.9663 -64.9552 -64.9552 -15.5713 -14.5976  -6.6439  -4.5725
    -4.5725  -3.5494  -3.3473  -3.3473  -3.1870  -2.6296  -2.6296  -0.8918
    -0.8918   1.8987   2.6088   2.7577

     occupation numbers 
     1.0000   1.0000   1.0000   1.0000   1.0000   1.0000   1.0000   1.0000
     1.0000   1.0000   1.0000   1.0000   1.0000   1.0000   1.0000   0.0000
     0.0000   0.0000   0.0000   0.0000

          k = 0.0000 0.0722 0.0000 ( 48113 PWs)   bands (ev):

  -104.6314 -64.9663 -64.9553 -64.9552 -15.5405 -14.5804  -6.6134  -4.6871
    -4.5692  -3.4831  -3.4323  -3.3988  -3.2526  -2.7051  -2.6365  -1.0463
    -0.9144   2.0422   2.7919   2.8577

     occupation numbers 
     1.0000   1.0000   1.0000   1.0000   1.0000   1.0000   1.0000   1.0000
     1.0000   1.0000   1.0000   1.0000   1.0000   1.0000   1.0000   0.0000
     0.0000   0.0000   0.0000   0.0000

          k = 0.0000 0.1443 0.0000 ( 48142 PWs)   bands (ev):

  -104.6314 -64.9663 -64.9553 -64.9553 -15.4501 -14.5311  -6.5279  -4.9644
    -4.5602  -3.8687  -3.5315  -3.3520  -3.2996  -2.7986  -2.6712  -1.3615
    -0.9666   2.3656   2.9052   3.1000

     occupation numbers 
     1.0000   1.0000   1.0000   1.0000   1.0000   1.0000   1.0000   1.0000
     1.0000   1.0000   1.0000   1.0000   1.0000   1.0000   1.0000   0.0000
     0.0000   0.0000   0.0000   0.0000

          k = 0.0000 0.2165 0.0000 ( 48158 PWs)   bands (ev):

  -104.6314 -64.9662 -64.9554 -64.9553 -15.3063 -14.4572  -6.4129  -5.3339
    -4.5470  -4.4531  -3.7045  -3.3504  -3.3017  -2.8597  -2.7492  -1.5914
    -1.0193   2.6345   2.7615   3.1041

     occupation numbers 
     1.0000   1.0000   1.0000   1.0000   1.0000   1.0000   1.0000   1.0000
     1.0000   1.0000   1.0000   1.0000   1.0000   1.0000   1.0000   0.0000
     0.0000   0.0000   0.0000   0.0000

          k = 0.0000 0.2887 0.0000 ( 48148 PWs)   bands (ev):

  -104.6314 -64.9662 -64.9555 -64.9553 -15.1207 -14.3713  -6.3574  -5.7468
    -4.9252  -4.5322  -3.8833  -3.5102  -3.3150  -2.9125  -2.8617  -1.6150
    -1.0557   2.1537   3.0514   3.3371

     occupation numbers 
     1.0000   1.0000   1.0000   1.0000   1.0000   1.0000   1.0000   1.0000
     1.0000   1.0000   1.0000   1.0000   1.0000   1.0000   1.0000   0.0000
     0.0000   0.0000   0.0000   0.0000

          k = 0.0000 0.3608 0.0000 ( 48214 PWs)   bands (ev):

  -104.6314 -64.9662 -64.9556 -64.9553 -14.9106 -14.2910  -6.5892  -6.0265
    -5.1119  -4.5185  -4.0434  -3.7665  -3.3303  -2.9829  -2.9740  -1.4996
    -1.0752   1.7028   3.2060   3.6160

     occupation numbers 
     1.0000   1.0000   1.0000   1.0000   1.0000   1.0000   1.0000   1.0000
     1.0000   1.0000   1.0000   1.0000   1.0000   1.0000   1.0000   0.0000
     0.0000   0.0000   0.0000   0.0000

          k = 0.0000 0.4330 0.0000 ( 48212 PWs)   bands (ev):

  -104.6314 -64.9662 -64.9557 -64.9554 -14.7010 -14.2372  -6.9903  -6.2111
    -5.0127  -4.5080  -4.1680  -4.0285  -3.3413  -3.0869  -3.0534  -1.3592
    -1.0841   1.3656   3.2078   3.6678

     occupation numbers 
     1.0000   1.0000   1.0000   1.0000   1.0000   1.0000   1.0000   1.0000
     1.0000   1.0000   1.0000   1.0000   1.0000   1.0000   1.0000   0.0000
     0.0000   0.0000   0.0000   0.0000

          k = 0.0000 0.5052 0.0000 ( 48214 PWs)   bands (ev):

  -104.6314 -64.9662 -64.9558 -64.9554 -14.5267 -14.2252  -7.2890  -6.3574
    -4.7886  -4.5020  -4.2657  -4.2465  -3.3480  -3.1555  -3.1319  -1.2613
    -1.0874   1.1681   3.1406   3.7174

     occupation numbers 
     1.0000   1.0000   1.0000   1.0000   1.0000   1.0000   1.0000   1.0000
     1.0000   1.0000   1.0000   1.0000   1.0000   1.0000   1.0000   0.0000
     0.0000   0.0000   0.0000   0.0000

          k = 0.0000-0.5774 0.0000 ( 48254 PWs)   bands (ev):

  -104.6314 -64.9662 -64.9558 -64.9554 -14.4479 -14.2364  -7.3961  -6.4127
    -4.6078  -4.5001  -4.4350  -4.2732  -3.3502  -3.1794  -3.1667  -1.2281
    -1.0883   1.1054   3.1028   3.8954

     occupation numbers 
     1.0000   1.0000   1.0000   1.0000   1.0000   1.0000   1.0000   1.0000
     1.0000   1.0000   1.0000   1.0000   1.0000   1.0000   1.0000   0.0000
     0.0000   0.0000   0.0000   0.0000

          k = 0.0625 0.1083 0.0000 ( 48119 PWs)   bands (ev):

  -104.6314 -64.9663 -64.9553 -64.9553 -15.4798 -14.5471  -6.5552  -4.8751
    -4.5675  -3.7140  -3.5100  -3.3745  -3.2897  -2.7765  -2.6642  -1.2417
    -0.9869   2.2735   2.8715   3.2342

     occupation numbers 
     1.0000   1.0000   1.0000   1.0000   1.0000   1.0000   1.0000   1.0000
     1.0000   1.0000   1.0000   1.0000   1.0000   1.0000   1.0000   0.0000
     0.0000   0.0000   0.0000   0.0000

          k = 0.0625 0.1804 0.0000 ( 48136 PWs)   bands (ev):

  -104.6314 -64.9662 -64.9554 -64.9553 -15.3627 -14.4854  -6.4531  -5.1769
    -4.5711  -4.2319  -3.6770  -3.3160  -3.3020  -2.8373  -2.7304  -1.4586
    -1.0872   2.6062   2.9865   3.0902

     occupation numbers 
     1.0000   1.0000   1.0000   1.0000   1.0000   1.0000   1.0000   1.0000
     1.0000   1.0000   1.0000   1.0000   1.0000   1.0000   1.0000   0.0000
     0.0000   0.0000   0.0000   0.0000

          k = 0.0625 0.2526 0.0000 ( 48148 PWs)   bands (ev):

  -104.6314 -64.9662 -64.9555 -64.9553 -15.1978 -14.4051  -6.3549  -5.5516
    -4.7744  -4.5646  -3.8665  -3.4030  -3.3114  -2.8928  -2.8119  -1.5741
    -1.1425   2.5466   2.9761   3.2259

     occupation numbers 
     1.0000   1.0000   1.0000   1.0000   1.0000   1.0000   1.0000   1.0000
     1.0000   1.0000   1.0000   1.0000   1.0000   1.0000   1.0000   0.0000
     0.0000   0.0000   0.0000   0.0000

          k = 0.0625 0.3248 0.0000 ( 48173 PWs)   bands (ev):

  -104.6314 -64.9662 -64.9556 -64.9553 -14.9994 -14.3213  -6.4203  -5.9083
    -5.0863  -4.5780  -4.0519  -3.6226  -3.3221  -2.9614  -2.8983  -1.5435
    -1.1570   2.0691   3.2349   3.5034

     occupation numbers 
     1.0000   1.0000   1.0000   1.0000   1.0000   1.0000   1.0000   1.0000
     1.0000   1.0000   1.0000   1.0000   1.0000   1.0000   1.0000   0.0000
     0.0000   0.0000   0.0000   0.0000

          k = 0.0625 0.3969 0.0000 ( 48195 PWs)   bands (ev):

  -104.6314 -64.9662 -64.9557 -64.9554 -14.7884 -14.2532  -6.7745  -6.1175
    -5.0965  -4.5850  -4.2232  -3.8766  -3.3218  -3.0553  -2.9805  -1.4378
    -1.1515   1.6675   3.3377   3.7601

     occupation numbers 
     1.0000   1.0000   1.0000   1.0000   1.0000   1.0000   1.0000   1.0000
     1.0000   1.0000   1.0000   1.0000   1.0000   1.0000   1.0000   0.0000
     0.0000   0.0000   0.0000   0.0000

          k = 0.0625 0.4691 0.0000 ( 48179 PWs)   bands (ev):

  -104.6314 -64.9662 -64.9557 -64.9554 -14.5938 -14.2204  -7.1354  -6.2813
    -4.9223  -4.5728  -4.3743  -4.1038  -3.3114  -3.1391  -3.0649  -1.3302
    -1.1495   1.3925   3.3554   3.7730

     occupation numbers 
     1.0000   1.0000   1.0000   1.0000   1.0000   1.0000   1.0000   1.0000
     1.0000   1.0000   1.0000   1.0000   1.0000   1.0000   1.0000   0.0000
     0.0000   0.0000   0.0000   0.0000

          k = 0.0625 0.5413 0.0000 ( 48239 PWs)   bands (ev):

  -104.6314 -64.9662 -64.9558 -64.9554 -14.4586 -14.2267  -7.3408  -6.3795
    -4.7398  -4.5343  -4.4616  -4.2992  -3.2999  -3.1745  -3.1384  -1.2503
    -1.1700   1.2595   3.3289   3.8833

     occupation numbers 
     1.0000   1.0000   1.0000   1.0000   1.0000   1.0000   1.0000   1.0000
     1.0000   1.0000   1.0000   1.0000   1.0000   1.0000   1.0000   0.0000
     0.0000   0.0000   0.0000   0.0000

          k = 0.1250 0.2165 0.0000 ( 48125 PWs)   bands (ev):

  -104.6314 -64.9662 -64.9554 -64.9553 -15.2243 -14.4171  -6.3606  -5.4521
    -4.7356  -4.5716  -3.8915  -3.3427  -3.3246  -2.8847  -2.8001  -1.4473
    -1.2988   2.8769   3.0166   3.1464

     occupation numbers 
     1.0000   1.0000   1.0000   1.0000   1.0000   1.0000   1.0000   1.0000
     1.0000   1.0000   1.0000   1.0000   1.0000   1.0000   1.0000   0.0000
     0.0000   0.0000   0.0000   0.0000

          k = 0.1250 0.2887 0.0000 ( 48141 PWs)   bands (ev):

  -104.6314 -64.9662 -64.9555 -64.9553 -15.0460 -14.3380  -6.3389  -5.7663
    -5.0899  -4.6536  -4.1088  -3.5192  -3.3236  -2.9496  -2.8448  -1.5019
    -1.3319   2.5999   3.2707   3.3710

     occupation numbers 
     1.0000   1.0000   1.0000   1.0000   1.0000   1.0000   1.0000   1.0000
     1.0000   1.0000   1.0000   1.0000   1.0000   1.0000   1.0000   0.0000
     0.0000   0.0000   0.0000   0.0000

          k = 0.1250 0.3608 0.0000 ( 48162 PWs)   bands (ev):

  -104.6314 -64.9662 -64.9556 -64.9554 -14.8453 -14.2647  -6.5526  -6.0283
    -5.1876  -4.7257  -4.3102  -3.7602  -3.3071  -3.0346  -2.9017  -1.5404
    -1.2574   2.1979   3.4200   3.7769

     occupation numbers 
     1.0000   1.0000   1.0000   1.0000   1.0000   1.0000   1.0000   1.0000
     1.0000   1.0000   1.0000   1.0000   1.0000   1.0000   1.0000   0.0000
     0.0000   0.0000   0.0000   0.0000

          k = 0.1250 0.4330 0.0000 ( 48177 PWs)   bands (ev):

  -104.6314 -64.9662 -64.9557 -64.9554 -14.6463 -14.2162  -6.9101  -6.1925
    -5.1087  -4.7470  -4.4873  -3.9950  -3.2759  -3.1248  -2.9736  -1.4998
    -1.2124   1.8577   3.5661   4.0836

     occupation numbers 
     1.0000   1.0000   1.0000   1.0000   1.0000   1.0000   1.0000   1.0000
     1.0000   1.0000   1.0000   1.0000   1.0000   1.0000   1.0000   0.0000
     0.0000   0.0000   0.0000   0.0000

          k = 0.1250 0.5052 0.0000 ( 48212 PWs)   bands (ev):

  -104.6314 -64.9662 -64.9557 -64.9554 -14.4813 -14.2066  -7.1846  -6.2977
    -5.0612  -4.6320  -4.6122  -4.2088  -3.2511  -3.1740  -3.0510  -1.4234
    -1.2233   1.6460   3.7253   4.1559

     occupation numbers 
     1.0000   1.0000   1.0000   1.0000   1.0000   1.0000   1.0000   1.0000
     1.0000   1.0000   1.0000   1.0000   1.0000   1.0000   1.0000   0.0000
     0.0000   0.0000   0.0000   0.0000

          k = 0.1250 0.5774 0.0000 ( 48240 PWs)   bands (ev):

  -104.6314 -64.9662 -64.9558 -64.9554 -14.4064 -14.2183  -7.2841  -6.3349
    -5.0605  -4.6590  -4.4486  -4.3979  -3.2600  -3.1466  -3.1088  -1.3694
    -1.2553   1.5766   3.8067   4.2245

     occupation numbers 
     1.0000   1.0000   1.0000   1.0000   1.0000   1.0000   1.0000   1.0000
     1.0000   1.0000   1.0000   1.0000   1.0000   1.0000   1.0000   0.0000
     0.0000   0.0000   0.0000   0.0000

          k = 0.1875 0.3248 0.0000 ( 48145 PWs)   bands (ev):

  -104.6314 -64.9662 -64.9556 -64.9554 -14.8650 -14.2689  -6.4507  -5.9790
    -5.2631  -4.7743  -4.3483  -3.7156  -3.3039  -3.0270  -2.8688  -1.6001
    -1.2937   2.5572   3.3122   3.7718

     occupation numbers 
     1.0000   1.0000   1.0000   1.0000   1.0000   1.0000   1.0000   1.0000
     1.0000   1.0000   1.0000   1.0000   1.0000   1.0000   1.0000   0.0000
     0.0000   0.0000   0.0000   0.0000

          k = 0.1875 0.3969 0.0000 ( 48173 PWs)   bands (ev):

  -104.6314 -64.9662 -64.9557 -64.9554 -14.6748 -14.2139  -6.7016  -6.1489
    -5.3173  -4.8185  -4.5627  -3.9349  -3.2616  -3.1152  -2.9148  -1.6482
    -1.2333   2.3196   3.4214   4.2315

     occupation numbers 
     1.0000   1.0000   1.0000   1.0000   1.0000   1.0000   1.0000   1.0000
     1.0000   1.0000   1.0000   1.0000   1.0000   1.0000   1.0000   0.0000
     0.0000   0.0000   0.0000   0.0000

          k = 0.1875 0.4691 0.0000 ( 48158 PWs)   bands (ev):

  -104.6314 -64.9662 -64.9557 -64.9555 -14.5011 -14.1894  -6.9708  -6.2283
    -5.4111  -4.7453  -4.6956  -4.1361  -3.2296  -3.1743  -2.9758  -1.6088
    -1.2383   2.0696   3.6590   4.5330

     occupation numbers 
     1.0000   1.0000   1.0000   1.0000   1.0000   1.0000   1.0000   1.0000
     1.0000   1.0000   1.0000   1.0000   1.0000   1.0000   1.0000   0.0000
     0.0000   0.0000   0.0000   0.0000

          k = 0.1875 0.5413 0.0000 ( 48174 PWs)   bands (ev):

  -104.6314 -64.9662 -64.9557 -64.9555 -14.3798 -14.1991  -7.1333  -6.2489
    -5.4998  -4.8324  -4.5210  -4.3185  -3.2674  -3.1303  -3.0378  -1.5386
    -1.2891   1.9297   3.9943   4.4207

     occupation numbers 
     1.0000   1.0000   1.0000   1.0000   1.0000   1.0000   1.0000   1.0000
     1.0000   1.0000   1.0000   1.0000   1.0000   1.0000   1.0000   0.0000
     0.0000   0.0000   0.0000   0.0000

          k = 0.2500 0.4330 0.0000 ( 48187 PWs)   bands (ev):

  -104.6314 -64.9662 -64.9557 -64.9555 -14.5086 -14.1829  -6.8437  -6.2249
    -5.5579  -4.7962  -4.7246  -4.1101  -3.2229  -3.1744  -2.9482  -1.6807
    -1.2438   2.2732   3.5091   4.7472

     occupation numbers 
     1.0000   1.0000   1.0000   1.0000   1.0000   1.0000   1.0000   1.0000
     1.0000   1.0000   1.0000   1.0000   1.0000   1.0000   1.0000   0.0000
     0.0000   0.0000   0.0000   0.0000

          k = 0.2500 0.5052 0.0000 ( 48229 PWs)   bands (ev):

  -104.6314 -64.9662 -64.9557 -64.9555 -14.3713 -14.1829  -6.9590  -6.2107
    -5.7893  -4.9764  -4.5663  -4.2596  -3.2760  -3.1245  -2.9938  -1.6298
    -1.3146   2.1463   3.8078   4.7111

     occupation numbers 
     1.0000   1.0000   1.0000   1.0000   1.0000   1.0000   1.0000   1.0000
     1.0000   1.0000   1.0000   1.0000   1.0000   1.0000   1.0000   0.0000
     0.0000   0.0000   0.0000   0.0000

          k = 0.2500 0.5774 0.0000 ( 48231 PWs)   bands (ev):

  -104.6314 -64.9662 -64.9557 -64.9555 -14.3046 -14.2002  -7.0049  -6.1631
    -5.9085  -5.0453  -4.4444  -4.3677  -3.3023  -3.0836  -3.0288  -1.5758
    -1.3754   2.0893   4.1664   4.3264

     occupation numbers 
     1.0000   1.0000   1.0000   1.0000   1.0000   1.0000   1.0000   1.0000
     1.0000   1.0000   1.0000   1.0000   1.0000   1.0000   1.0000   0.0000
     0.0000   0.0000   0.0000   0.0000

          k = 0.3125 0.5413 0.0000 ( 48231 PWs)   bands (ev):

  -104.6314 -64.9662 -64.9557 -64.9556 -14.2737 -14.2050  -6.9127  -6.1578
    -6.0538  -5.1452  -4.4470  -4.3509  -3.3168  -3.0696  -3.0232  -1.5644
    -1.4293   2.1293   4.1237   4.4892

     occupation numbers 
     1.0000   1.0000   1.0000   1.0000   1.0000   1.0000   1.0000   1.0000
     1.0000   1.0000   1.0000   1.0000   1.0000   1.0000   1.0000   0.0000
     0.0000   0.0000   0.0000   0.0000

     the Fermi energy is    -1.7825 ev
     (compare with:    -1.7810 eV, computed in scf)

     Writing all to output data dir ./tmp/csp.save/
 
     init_run     :      1.21s CPU      1.26s WALL (       1 calls)
     electrons    :     21.75s CPU     21.90s WALL (       1 calls)

     Called by init_run:
     wfcinit      :      0.00s CPU      0.00s WALL (       1 calls)
     wfcinit:atom :      0.04s CPU      0.04s WALL (      60 calls)
     wfcinit:wfcr :      1.03s CPU      1.04s WALL (      60 calls)
     potinit      :      0.08s CPU      0.09s WALL (       1 calls)
     hinit0       :      1.02s CPU      1.04s WALL (       1 calls)

     Called by electrons:
     c_bands      :     21.75s CPU     21.90s WALL (       1 calls)
     v_of_rho     :      0.06s CPU      0.07s WALL (       1 calls)
     v_h          :      0.00s CPU      0.00s WALL (       1 calls)
     v_xc         :      0.06s CPU      0.06s WALL (       1 calls)

     Called by c_bands:
     init_us_2    :      0.06s CPU      0.06s WALL (      60 calls)
     init_us_2:cp :      0.06s CPU      0.06s WALL (      60 calls)
     cegterg      :     20.16s CPU     20.27s WALL (     124 calls)

     Called by sum_band:

     Called by *egterg:
     cdiaghg      :      1.03s CPU      1.04s WALL (    2073 calls)
     cegterg:over :      1.53s CPU      1.54s WALL (    2013 calls)
     cegterg:upda :      0.67s CPU      0.67s WALL (    2013 calls)
     cegterg:last :      0.83s CPU      0.83s WALL (     966 calls)
     h_psi        :     16.40s CPU     16.50s WALL (    2197 calls)
     g_psi        :      0.16s CPU      0.16s WALL (    2013 calls)

     Called by h_psi:
     h_psi:calbec :      1.29s CPU      1.30s WALL (    2197 calls)
     vloc_psi     :     13.87s CPU     13.95s WALL (    2197 calls)
     add_vuspsi   :      1.05s CPU      1.06s WALL (    2197 calls)

     General routines
     calbec       :      1.29s CPU      1.30s WALL (    2197 calls)
     fft          :      0.10s CPU      0.13s WALL (      21 calls)
     ffts         :      0.00s CPU      0.00s WALL (       2 calls)
     fftw         :     11.57s CPU     11.64s WALL (   39364 calls)
     interpolate  :      0.01s CPU      0.01s WALL (       2 calls)
     davcio       :      0.06s CPU      0.20s WALL (     120 calls)
 
     Parallel routines
 
     PWSCF        :     23.75s CPU     24.47s WALL

 
   This run was terminated on:  23:16:42  26Jun2023            

=------------------------------------------------------------------------------=
   JOB DONE.
=------------------------------------------------------------------------------=
