
     Program PROJWFC v.7.1 starts on 27Jun2023 at 15:49:42 

     This program is part of the open-source Quantum ESPRESSO suite
     for quantum simulation of materials; please cite
         "P. Giannozzi et al., J. Phys.:Condens. Matter 21 395502 (2009);
         "P. Giannozzi et al., J. Phys.:Condens. Matter 29 465901 (2017);
         "P. Giannozzi et al., J. Chem. Phys. 152 154105 (2020);
          URL http://www.quantum-espresso.org", 
     in publications or presentations arising from this work. More details at
     http://www.quantum-espresso.org/quote

     Parallel version (MPI & OpenMP), running on      20 processor cores
     Number of MPI processes:                20
     Threads/MPI process:                     1

     MPI processes distributed on     1 nodes
     R & G space division:  proc/nbgrp/npool/nimage =      20
     225392 MiB available memory on the printing compute node when the environment starts
 

     Reading xml data from directory:

     ./tmp/csp.save/

     IMPORTANT: XC functional enforced from input :
     Exchange-correlation= PBE
                           (   1   4   3   4   0   0   0)
     Any further DFT definition will be discarded
     Please, verify this is what you really want

 
     Parallelization info
     --------------------
     sticks:   dense  smooth     PW     G-vecs:    dense   smooth      PW
     Min          93      89     25                20481    19267    2993
     Max          94      90     26                20502    19300    3024
     Sum        1879    1789    511               409943   385631   60191
 
     Using Slab Decomposition
 

     Gaussian broadening (read from input): ngauss,degauss=   0    0.003000


     Calling projwave .... 
     Subspace diagonalization in iterative solution of the eigenvalue problem:
     one sub-group per band group will be used
     ELPA distributed-memory algorithm (size of sub-group:  4*  4 procs)

     linear algebra parallelized on  16 procs
 
  Problem Sizes 
  natomwfc =           18
  nx       =            5
  nbnd     =           20
  nkstot   =          512
  npwx     =         2460
  nkb      =           54
 

     --------------------- ATOM    1 ----------------------

     Orbital quantum number l = 0
     SPIN  1
     occupation matrix ns (before diag.):
       0.998
     eigenvalues:
       0.998
     eigenvectors (columns):
       1.000
     SPIN  2
     occupation matrix ns (before diag.):
       0.997
     eigenvalues:
       0.997
     eigenvectors (columns):
       1.000

     Orbital quantum number l = 1
     SPIN  1
     occupation matrix ns (before diag.):
       1.000 -0.000  0.000
      -0.000  1.000  0.000
       0.000  0.000  1.000
     eigenvalues:
       1.000  1.000  1.000
     eigenvectors (columns):
       1.000  0.000  0.000
       0.000  1.000  0.000
       0.000  0.000  1.000
     SPIN  2
     occupation matrix ns (before diag.):
       1.000  0.000 -0.000
       0.000  1.000  0.000
      -0.000  0.000  1.000
     eigenvalues:
       1.000  1.000  1.000
     eigenvectors (columns):
       1.000  0.000  0.000
       0.000  1.000  0.000
       0.000  0.000  1.000

     Orbital quantum number l = 2
     SPIN  1
     occupation matrix ns (before diag.):
       0.992 -0.000  0.000 -0.000  0.000
      -0.000  0.995 -0.000  0.000  0.001
       0.000 -0.000  0.995  0.001  0.000
      -0.000  0.000  0.001  0.991 -0.000
       0.000  0.001  0.000 -0.000  0.991
     eigenvalues:
       0.991  0.991  0.992  0.995  0.995
     eigenvectors (columns):
      -0.000 -0.000 -1.000 -0.000 -0.000
       0.079 -0.359  0.000 -0.686  0.628
       0.359  0.079 -0.000 -0.628 -0.686
      -0.908 -0.201  0.000 -0.248 -0.271
      -0.201  0.908 -0.000 -0.271  0.248
     SPIN  2
     occupation matrix ns (before diag.):
       0.976 -0.000 -0.000  0.000  0.000
      -0.000  0.586 -0.000 -0.000 -0.265
      -0.000 -0.000  0.586 -0.265 -0.000
       0.000 -0.000 -0.265  0.797  0.000
       0.000 -0.265 -0.000  0.000  0.797
     eigenvalues:
       0.406  0.406  0.976  0.977  0.977
     eigenvectors (columns):
       0.000 -0.000  1.000  0.000  0.000
      -0.231 -0.795  0.000  0.114 -0.550
      -0.795  0.231  0.000 -0.550 -0.114
      -0.539  0.157 -0.000  0.810  0.168
      -0.157 -0.539 -0.000 -0.168  0.810

     Orbital quantum number l = 0
     SPIN  1
     occupation matrix ns (before diag.):
       0.322
     eigenvalues:
       0.322
     eigenvectors (columns):
       1.000
     SPIN  2
     occupation matrix ns (before diag.):
       0.331
     eigenvalues:
       0.331
     eigenvectors (columns):
       1.000

     --------------------- ATOM    2 ----------------------

     Orbital quantum number l = 0
     SPIN  1
     occupation matrix ns (before diag.):
       0.974
     eigenvalues:
       0.974
     eigenvectors (columns):
       1.000
     SPIN  2
     occupation matrix ns (before diag.):
       0.966
     eigenvalues:
       0.966
     eigenvectors (columns):
       1.000

     Orbital quantum number l = 1
     SPIN  1
     occupation matrix ns (before diag.):
       0.956  0.000  0.000
       0.000  0.936  0.000
       0.000  0.000  0.936
     eigenvalues:
       0.956  0.936  0.936
     eigenvectors (columns):
       1.000  0.000  0.000
       0.000  1.000  0.000
       0.000  0.000  1.000
     SPIN  2
     occupation matrix ns (before diag.):
       0.839 -0.000 -0.000
      -0.000  0.798  0.000
      -0.000  0.000  0.798
     eigenvalues:
       0.839  0.798  0.798
     eigenvectors (columns):
       1.000  0.000  0.000
       0.000  1.000  0.000
       0.000  0.000  1.000

     --------------------- ATOM    3 ----------------------

     Orbital quantum number l = 0
     SPIN  1
     occupation matrix ns (before diag.):
       0.974
     eigenvalues:
       0.974
     eigenvectors (columns):
       1.000
     SPIN  2
     occupation matrix ns (before diag.):
       0.966
     eigenvalues:
       0.966
     eigenvectors (columns):
       1.000

     Orbital quantum number l = 1
     SPIN  1
     occupation matrix ns (before diag.):
       0.956  0.000  0.000
       0.000  0.936 -0.000
       0.000 -0.000  0.936
     eigenvalues:
       0.956  0.936  0.936
     eigenvectors (columns):
       1.000  0.000  0.000
       0.000  1.000  0.000
       0.000  0.000  1.000
     SPIN  2
     occupation matrix ns (before diag.):
       0.839  0.000 -0.000
       0.000  0.798 -0.000
      -0.000 -0.000  0.798
     eigenvalues:
       0.839  0.798  0.798
     eigenvectors (columns):
       1.000  0.000  0.000
       0.000  1.000  0.000
       0.000  0.000  1.000

     Rotating the orbitals to the diagonal representation of ns...

     Atomic states used for projection
     (read from pseudopotential files):

     state #   1: atom   1 (Ni ), wfc  1 (l=0 m= 1)
     state #   2: atom   1 (Ni ), wfc  2 (l=1 m= 1)
     state #   3: atom   1 (Ni ), wfc  2 (l=1 m= 2)
     state #   4: atom   1 (Ni ), wfc  2 (l=1 m= 3)
     state #   5: atom   1 (Ni ), wfc  3 (l=2 m= 1)
     state #   6: atom   1 (Ni ), wfc  3 (l=2 m= 2)
     state #   7: atom   1 (Ni ), wfc  3 (l=2 m= 3)
     state #   8: atom   1 (Ni ), wfc  3 (l=2 m= 4)
     state #   9: atom   1 (Ni ), wfc  3 (l=2 m= 5)
     state #  10: atom   1 (Ni ), wfc  4 (l=0 m= 1)
     state #  11: atom   2 (I  ), wfc  1 (l=0 m= 1)
     state #  12: atom   2 (I  ), wfc  2 (l=1 m= 1)
     state #  13: atom   2 (I  ), wfc  2 (l=1 m= 2)
     state #  14: atom   2 (I  ), wfc  2 (l=1 m= 3)
     state #  15: atom   3 (I  ), wfc  1 (l=0 m= 1)
     state #  16: atom   3 (I  ), wfc  2 (l=1 m= 1)
     state #  17: atom   3 (I  ), wfc  2 (l=1 m= 2)
     state #  18: atom   3 (I  ), wfc  2 (l=1 m= 3)

 k =   0.0000000000  0.0000000000  0.0000000000
==== e(   1) =  -106.00214 eV ==== 
     psi = 0.996*[#   1]+0.002*[#  12]+0.002*[#  16]
    |psi|^2 = 1.000
==== e(   2) =   -66.47578 eV ==== 
     psi = 0.999*[#   2]
    |psi|^2 = 1.000
==== e(   3) =   -66.42234 eV ==== 
     psi = 0.789*[#   3]+0.211*[#   4]
    |psi|^2 = 1.000
==== e(   4) =   -66.42234 eV ==== 
     psi = 0.789*[#   4]+0.211*[#   3]
    |psi|^2 = 1.000
==== e(   5) =   -15.79608 eV ==== 
     psi = 0.364*[#  11]+0.364*[#  15]+0.261*[#  10]+0.005*[#  12]+0.005*[#  16]
          +0.001*[#   1]
    |psi|^2 = 1.000
==== e(   6) =   -14.85379 eV ==== 
     psi = 0.495*[#  11]+0.495*[#  15]+0.003*[#  12]+0.003*[#  16]
    |psi|^2 = 0.997
==== e(   7) =    -6.86309 eV ==== 
     psi = 0.374*[#  12]+0.374*[#  16]+0.100*[#   7]+0.072*[#  10]+0.035*[#  11]
          +0.035*[#  15]+0.002*[#   1]
    |psi|^2 = 0.994
==== e(   8) =    -5.81985 eV ==== 
     psi = 0.573*[#   9]+0.114*[#   6]+0.090*[#  13]+0.090*[#  17]+0.059*[#   8]
          +0.029*[#  14]+0.029*[#  18]+0.011*[#   5]
    |psi|^2 = 0.995
==== e(   9) =    -5.81985 eV ==== 
     psi = 0.573*[#   8]+0.114*[#   5]+0.090*[#  14]+0.090*[#  18]+0.059*[#   9]
          +0.029*[#  13]+0.029*[#  17]+0.011*[#   6]
    |psi|^2 = 0.995
==== e(  10) =    -4.28773 eV ==== 
     psi = 0.679*[#   5]+0.202*[#   8]+0.074*[#   6]+0.018*[#   9]+0.007*[#  14]
          +0.007*[#  18]+0.002*[#  13]+0.002*[#  17]
    |psi|^2 = 0.990
==== e(  11) =    -4.28773 eV ==== 
     psi = 0.679*[#   6]+0.202*[#   9]+0.074*[#   5]+0.018*[#   8]+0.007*[#  13]
          +0.007*[#  17]+0.002*[#  14]+0.002*[#  18]
    |psi|^2 = 0.990
==== e(  12) =    -3.92169 eV ==== 
     psi = 0.885*[#   7]+0.035*[#  12]+0.035*[#  16]+0.025*[#  10]+0.006*[#  11]
          +0.006*[#  15]
    |psi|^2 = 0.993
==== e(  13) =    -3.79190 eV ==== 
     psi = 0.495*[#  12]+0.495*[#  16]+0.003*[#  11]+0.003*[#  15]
    |psi|^2 = 0.995
==== e(  14) =    -2.88192 eV ==== 
     psi = 0.369*[#  13]+0.369*[#  17]+0.123*[#  14]+0.123*[#  18]
    |psi|^2 = 0.984
==== e(  15) =    -2.88192 eV ==== 
     psi = 0.369*[#  14]+0.369*[#  18]+0.123*[#  13]+0.123*[#  17]
    |psi|^2 = 0.984
==== e(  16) =    -1.98631 eV ==== 
     psi = 0.278*[#  14]+0.278*[#  18]+0.130*[#   8]+0.105*[#   5]+0.092*[#  13]
          +0.092*[#  17]+0.013*[#   9]+0.010*[#   6]
    |psi|^2 = 0.999
==== e(  17) =    -1.98631 eV ==== 
     psi = 0.278*[#  13]+0.278*[#  17]+0.130*[#   9]+0.105*[#   6]+0.092*[#  14]
          +0.092*[#  18]+0.013*[#   8]+0.010*[#   5]
    |psi|^2 = 0.999
==== e(  18) =     1.76614 eV ==== 
     psi = 0.402*[#  10]+0.058*[#  11]+0.058*[#  15]+0.053*[#  12]+0.053*[#  16]
          +0.002*[#   7]
    |psi|^2 = 0.627
==== e(  19) =     2.50392 eV ==== 
     psi = 0.001*[#  11]+0.001*[#  15]
    |psi|^2 = 0.004
==== e(  20) =     2.68447 eV ==== 
 
    |psi|^2 = 0.000

 k =   0.0000000000  0.0721687836  0.0000000000
==== e(   1) =  -106.00214 eV ==== 
     psi = 0.996*[#   1]+0.002*[#  12]+0.002*[#  16]
    |psi|^2 = 1.000
==== e(   2) =   -66.47577 eV ==== 
     psi = 0.999*[#   2]
    |psi|^2 = 1.000
==== e(   3) =   -66.42236 eV ==== 
     psi = 1.000*[#   4]
    |psi|^2 = 1.000
==== e(   4) =   -66.42234 eV ==== 
     psi = 1.000*[#   3]
    |psi|^2 = 1.000
==== e(   5) =   -15.76573 eV ==== 
     psi = 0.367*[#  11]+0.367*[#  15]+0.254*[#  10]+0.005*[#  12]+0.005*[#  16]
          +0.001*[#   1]
    |psi|^2 = 1.000
==== e(   6) =   -14.83712 eV ==== 
     psi = 0.494*[#  11]+0.494*[#  15]+0.003*[#  12]+0.003*[#  16]
    |psi|^2 = 0.997
==== e(   7) =    -6.83187 eV ==== 
     psi = 0.373*[#  12]+0.373*[#  16]+0.099*[#   7]+0.074*[#  10]+0.036*[#  11]
          +0.036*[#  15]+0.002*[#   1]
    |psi|^2 = 0.994
==== e(   8) =    -5.85908 eV ==== 
     psi = 0.329*[#   9]+0.275*[#   8]+0.125*[#  14]+0.125*[#  18]+0.120*[#   5]
          +0.008*[#  12]+0.008*[#  16]+0.006*[#   6]
    |psi|^2 = 0.995
==== e(   9) =    -5.81651 eV ==== 
     psi = 0.346*[#   8]+0.290*[#   9]+0.120*[#  13]+0.120*[#  17]+0.114*[#   6]
          +0.006*[#   5]
    |psi|^2 = 0.995
==== e(  10) =    -4.33452 eV ==== 
     psi = 0.659*[#   5]+0.127*[#   9]+0.106*[#   8]+0.032*[#   6]+0.025*[#  14]
          +0.025*[#  18]+0.006*[#   7]+0.003*[#  12]+0.003*[#  16]
    |psi|^2 = 0.989
==== e(  11) =    -4.30543 eV ==== 
     psi = 0.705*[#   6]+0.114*[#   8]+0.095*[#   9]+0.035*[#   5]+0.021*[#  13]
          +0.021*[#  17]
    |psi|^2 = 0.990
==== e(  12) =    -3.96386 eV ==== 
     psi = 0.838*[#   7]+0.029*[#  10]+0.028*[#  12]+0.028*[#  16]+0.019*[#  14]
          +0.019*[#  18]+0.010*[#   5]+0.008*[#  11]+0.008*[#  15]+0.001*[#   9]
          +0.001*[#   8]
    |psi|^2 = 0.992
==== e(  13) =    -3.74042 eV ==== 
     psi = 0.483*[#  12]+0.483*[#  16]+0.013*[#   5]+0.003*[#  14]+0.003*[#  18]
          +0.002*[#  11]+0.002*[#  15]+0.002*[#   9]+0.001*[#   8]
    |psi|^2 = 0.994
==== e(  14) =    -3.04027 eV ==== 
     psi = 0.436*[#  14]+0.436*[#  18]+0.044*[#   7]+0.035*[#   5]+0.011*[#  12]
          +0.011*[#  16]+0.005*[#  10]+0.002*[#  11]+0.002*[#  15]+0.002*[#   6]
          
    |psi|^2 = 0.985
==== e(  15) =    -2.91901 eV ==== 
     psi = 0.474*[#  13]+0.474*[#  17]+0.033*[#   6]+0.002*[#   5]
    |psi|^2 = 0.983
==== e(  16) =    -2.16229 eV ==== 
     psi = 0.362*[#  14]+0.362*[#  18]+0.108*[#   5]+0.082*[#   9]+0.069*[#   8]
          +0.005*[#   6]+0.002*[#  11]+0.002*[#  15]
    |psi|^2 = 0.992
==== e(  17) =    -2.01211 eV ==== 
     psi = 0.375*[#  13]+0.375*[#  17]+0.094*[#   6]+0.081*[#   8]+0.068*[#   9]
          +0.005*[#   5]
    |psi|^2 = 0.998
==== e(  18) =     1.91150 eV ==== 
     psi = 0.372*[#  10]+0.050*[#  11]+0.050*[#  15]+0.047*[#  12]+0.047*[#  16]
          +0.008*[#  14]+0.008*[#  18]
    |psi|^2 = 0.585
==== e(  19) =     2.70327 eV ==== 
     psi = 0.001*[#  14]+0.001*[#  18]
    |psi|^2 = 0.006
==== e(  20) =     2.75371 eV ==== 
     psi = 0.002*[#  14]+0.002*[#  18]
    |psi|^2 = 0.007

 k =   0.0000000000  0.1443375673  0.0000000000
==== e(   1) =  -106.00214 eV ==== 
     psi = 0.995*[#   1]+0.002*[#  12]+0.002*[#  16]
    |psi|^2 = 1.000
==== e(   2) =   -66.47576 eV ==== 
     psi = 0.999*[#   2]
    |psi|^2 = 1.000
==== e(   3) =   -66.42241 eV ==== 
     psi = 0.999*[#   4]
    |psi|^2 = 1.000
==== e(   4) =   -66.42236 eV ==== 
     psi = 1.000*[#   3]
    |psi|^2 = 1.000
==== e(   5) =   -15.67673 eV ==== 
     psi = 0.374*[#  11]+0.374*[#  15]+0.234*[#  10]+0.005*[#  12]+0.005*[#  16]
          +0.003*[#  14]+0.003*[#  18]
    |psi|^2 = 1.000
==== e(   6) =   -14.78945 eV ==== 
     psi = 0.492*[#  11]+0.492*[#  15]+0.003*[#  14]+0.003*[#  18]+0.002*[#  12]
          +0.002*[#  16]+0.002*[#   9]+0.002*[#   8]
    |psi|^2 = 0.997
==== e(   7) =    -6.74380 eV ==== 
     psi = 0.369*[#  12]+0.369*[#  16]+0.093*[#   7]+0.081*[#  10]+0.036*[#  11]
          +0.036*[#  15]+0.003*[#  14]+0.003*[#  18]+0.002*[#   1]
    |psi|^2 = 0.994
==== e(   8) =    -5.96430 eV ==== 
     psi = 0.287*[#   9]+0.240*[#   8]+0.143*[#  14]+0.143*[#  18]+0.121*[#   5]
          +0.027*[#  12]+0.027*[#  16]+0.006*[#   6]
    |psi|^2 = 0.994
==== e(   9) =    -5.80737 eV ==== 
     psi = 0.353*[#   8]+0.295*[#   9]+0.121*[#  13]+0.121*[#  17]+0.099*[#   6]
          +0.005*[#   5]
    |psi|^2 = 0.995
==== e(  10) =    -4.54965 eV ==== 
     psi = 0.398*[#   5]+0.122*[#  14]+0.122*[#  18]+0.121*[#   9]+0.101*[#   8]
          +0.070*[#   7]+0.019*[#   6]+0.012*[#  10]+0.005*[#  12]+0.005*[#  16]
          +0.005*[#  11]+0.005*[#  15]
    |psi|^2 = 0.986
==== e(  11) =    -4.35320 eV ==== 
     psi = 0.669*[#   6]+0.098*[#   8]+0.082*[#   9]+0.054*[#  13]+0.054*[#  17]
          +0.033*[#   5]
    |psi|^2 = 0.989
==== e(  12) =    -4.07199 eV ==== 
     psi = 0.609*[#   7]+0.156*[#   5]+0.044*[#  14]+0.044*[#  18]+0.033*[#  10]
          +0.027*[#   9]+0.023*[#   8]+0.014*[#  12]+0.014*[#  16]+0.009*[#  11]
          +0.009*[#  15]+0.008*[#   6]
    |psi|^2 = 0.990
==== e(  13) =    -3.61879 eV ==== 
     psi = 0.455*[#  12]+0.455*[#  16]+0.030*[#   5]+0.019*[#  14]+0.019*[#  18]
          +0.003*[#   9]+0.003*[#   7]+0.002*[#   8]+0.001*[#   6]+0.001*[#  11]
          +0.001*[#  15]
    |psi|^2 = 0.991
==== e(  14) =    -3.32685 eV ==== 
     psi = 0.275*[#  14]+0.275*[#  18]+0.209*[#   7]+0.130*[#   5]+0.039*[#  12]
          +0.039*[#  16]+0.006*[#   6]+0.006*[#  10]+0.003*[#  11]+0.003*[#  15]
          +0.002*[#   9]+0.001*[#   8]
    |psi|^2 = 0.988
==== e(  15) =    -3.02982 eV ==== 
     psi = 0.427*[#  13]+0.427*[#  17]+0.121*[#   6]+0.006*[#   5]
    |psi|^2 = 0.982
==== e(  16) =    -2.58049 eV ==== 
     psi = 0.330*[#  14]+0.330*[#  18]+0.108*[#   5]+0.099*[#   9]+0.083*[#   8]
          +0.007*[#  12]+0.007*[#  16]+0.006*[#   7]+0.006*[#  11]+0.006*[#  15]
          +0.005*[#   6]
    |psi|^2 = 0.986
==== e(  17) =    -2.07318 eV ==== 
     psi = 0.385*[#  13]+0.385*[#  17]+0.091*[#   8]+0.076*[#   9]+0.058*[#   6]
          +0.003*[#   5]
    |psi|^2 = 0.998
==== e(  18) =     2.23659 eV ==== 
     psi = 0.317*[#  10]+0.037*[#  12]+0.037*[#  16]+0.035*[#  11]+0.035*[#  15]
          +0.020*[#  14]+0.020*[#  18]
    |psi|^2 = 0.503
==== e(  19) =     2.82127 eV ==== 
     psi = 0.003*[#  10]+0.001*[#  14]+0.001*[#  18]
    |psi|^2 = 0.007
==== e(  20) =     2.95466 eV ==== 
     psi = 0.087*[#  10]+0.015*[#  14]+0.015*[#  18]+0.009*[#  11]+0.009*[#  15]
          +0.009*[#  12]+0.009*[#  16]+0.002*[#   7]
    |psi|^2 = 0.157

 k =   0.0000000000  0.2165063509  0.0000000000
==== e(   1) =  -106.00214 eV ==== 
     psi = 0.995*[#   1]+0.001*[#  12]+0.001*[#  16]
    |psi|^2 = 1.000
==== e(   2) =   -66.47575 eV ==== 
     psi = 0.999*[#   2]
    |psi|^2 = 1.000
==== e(   3) =   -66.42249 eV ==== 
     psi = 0.999*[#   4]
    |psi|^2 = 1.000
==== e(   4) =   -66.42238 eV ==== 
     psi = 0.999*[#   3]
    |psi|^2 = 1.000
==== e(   5) =   -15.53543 eV ==== 
     psi = 0.387*[#  11]+0.387*[#  15]+0.203*[#  10]+0.006*[#  14]+0.006*[#  18]
          +0.005*[#  12]+0.005*[#  16]
    |psi|^2 = 0.999
==== e(   6) =   -14.71796 eV ==== 
     psi = 0.489*[#  11]+0.489*[#  15]+0.004*[#  14]+0.004*[#  18]+0.004*[#   9]
          +0.003*[#   8]+0.002*[#  12]+0.002*[#  16]
    |psi|^2 = 0.998
==== e(   7) =    -6.62261 eV ==== 
     psi = 0.355*[#  12]+0.355*[#  16]+0.097*[#  10]+0.079*[#   7]+0.039*[#  11]
          +0.039*[#  15]+0.013*[#  14]+0.013*[#  18]+0.003*[#   5]+0.002*[#   1]
          
    |psi|^2 = 0.995
==== e(   8) =    -6.11088 eV ==== 
     psi = 0.228*[#   9]+0.191*[#   8]+0.177*[#  14]+0.177*[#  18]+0.122*[#   5]
          +0.046*[#  12]+0.046*[#  16]+0.006*[#   6]
    |psi|^2 = 0.992
==== e(   9) =    -5.79496 eV ==== 
     psi = 0.364*[#   8]+0.304*[#   9]+0.124*[#  13]+0.124*[#  17]+0.076*[#   6]
          +0.004*[#   5]
    |psi|^2 = 0.995
==== e(  10) =    -5.02392 eV ==== 
     psi = 0.234*[#  14]+0.234*[#  18]+0.132*[#   5]+0.109*[#   7]+0.103*[#   9]
          +0.086*[#   8]+0.028*[#  10]+0.014*[#  12]+0.014*[#  16]+0.010*[#  11]
          +0.010*[#  15]+0.006*[#   6]
    |psi|^2 = 0.983
==== e(  11) =    -4.41671 eV ==== 
     psi = 0.613*[#   6]+0.103*[#  13]+0.103*[#  17]+0.075*[#   8]+0.063*[#   9]
          +0.030*[#   5]
    |psi|^2 = 0.988
==== e(  12) =    -4.15708 eV ==== 
     psi = 0.395*[#   7]+0.322*[#   5]+0.076*[#   9]+0.064*[#   8]+0.029*[#  14]
          +0.029*[#  18]+0.027*[#  10]+0.016*[#   6]+0.008*[#  11]+0.008*[#  15]
          +0.007*[#  12]+0.007*[#  16]
    |psi|^2 = 0.989
==== e(  13) =    -3.55827 eV ==== 
     psi = 0.335*[#  12]+0.335*[#  16]+0.142*[#  14]+0.142*[#  18]+0.014*[#   5]
          +0.010*[#   7]+0.001*[#   9]+0.001*[#   8]
    |psi|^2 = 0.983
==== e(  14) =    -3.53019 eV ==== 
     psi = 0.360*[#   7]+0.252*[#   5]+0.107*[#  14]+0.107*[#  18]+0.074*[#  12]
          +0.074*[#  16]+0.012*[#   6]+0.002*[#  10]+0.002*[#  11]+0.002*[#  15]
          
    |psi|^2 = 0.993
==== e(  15) =    -3.20561 eV ==== 
     psi = 0.367*[#  13]+0.367*[#  17]+0.235*[#   6]+0.012*[#   5]
    |psi|^2 = 0.981
==== e(  16) =    -2.96486 eV ==== 
     psi = 0.206*[#  14]+0.206*[#  18]+0.128*[#   9]+0.107*[#   8]+0.096*[#   5]
          +0.094*[#  12]+0.094*[#  16]+0.038*[#   7]+0.009*[#  11]+0.009*[#  15]
          +0.005*[#   6]
    |psi|^2 = 0.993
==== e(  17) =    -2.13902 eV ==== 
     psi = 0.392*[#  13]+0.392*[#  17]+0.103*[#   8]+0.086*[#   9]+0.022*[#   6]
          +0.001*[#   5]
    |psi|^2 = 0.997
==== e(  18) =     2.43279 eV ==== 
     psi = 0.365*[#  10]+0.052*[#  14]+0.052*[#  18]+0.034*[#  12]+0.034*[#  16]
          +0.029*[#  11]+0.029*[#  15]+0.002*[#   5]+0.001*[#   7]
    |psi|^2 = 0.601
==== e(  19) =     2.67066 eV ==== 
     psi = 0.030*[#  10]+0.004*[#  12]+0.004*[#  16]+0.003*[#  11]+0.003*[#  15]
          
    |psi|^2 = 0.046
==== e(  20) =     3.00446 eV ==== 
     psi = 0.002*[#   5]+0.001*[#  10]
    |psi|^2 = 0.006

 k =   0.0000000000  0.2886751346  0.0000000000
==== e(   1) =  -106.00214 eV ==== 
     psi = 0.995*[#   1]+0.001*[#  12]+0.001*[#  14]+0.001*[#  16]+0.001*[#  18]
          
    |psi|^2 = 1.000
==== e(   2) =   -66.47573 eV ==== 
     psi = 0.999*[#   2]
    |psi|^2 = 1.000
==== e(   3) =   -66.42258 eV ==== 
     psi = 0.999*[#   4]
    |psi|^2 = 1.000
==== e(   4) =   -66.42240 eV ==== 
     psi = 0.999*[#   3]
    |psi|^2 = 1.000
==== e(   5) =   -15.35323 eV ==== 
     psi = 0.405*[#  11]+0.405*[#  15]+0.163*[#  10]+0.008*[#  14]+0.008*[#  18]
          +0.005*[#  12]+0.005*[#  16]
    |psi|^2 = 0.999
==== e(   6) =   -14.63489 eV ==== 
     psi = 0.487*[#  11]+0.487*[#  15]+0.007*[#   9]+0.005*[#   8]+0.004*[#  14]
          +0.004*[#  18]
    |psi|^2 = 0.998
==== e(   7) =    -6.55652 eV ==== 
     psi = 0.277*[#  12]+0.277*[#  16]+0.135*[#  10]+0.075*[#  14]+0.075*[#  18]
          +0.045*[#  11]+0.045*[#  15]+0.039*[#   7]+0.024*[#   5]+0.002*[#   1]
          +0.001*[#   6]
    |psi|^2 = 0.994
==== e(   8) =    -6.27958 eV ==== 
     psi = 0.225*[#  14]+0.225*[#  18]+0.152*[#   9]+0.128*[#   8]+0.106*[#   5]
          +0.071*[#  12]+0.071*[#  16]+0.005*[#   6]+0.004*[#   7]
    |psi|^2 = 0.989
==== e(   9) =    -5.78289 eV ==== 
     psi = 0.376*[#   8]+0.314*[#   9]+0.126*[#  13]+0.126*[#  17]+0.051*[#   6]
          +0.003*[#   5]
    |psi|^2 = 0.995
==== e(  10) =    -5.51902 eV ==== 
     psi = 0.218*[#  14]+0.218*[#  18]+0.123*[#   7]+0.117*[#   9]+0.098*[#   8]
          +0.078*[#  12]+0.078*[#  16]+0.024*[#   5]+0.018*[#  10]+0.005*[#  11]
          +0.005*[#  15]+0.001*[#   6]
    |psi|^2 = 0.985
==== e(  11) =    -4.47689 eV ==== 
     psi = 0.538*[#   6]+0.165*[#  13]+0.165*[#  17]+0.051*[#   8]+0.042*[#   9]
          +0.026*[#   5]
    |psi|^2 = 0.987
==== e(  12) =    -4.21399 eV ==== 
     psi = 0.339*[#   7]+0.308*[#   5]+0.123*[#   9]+0.103*[#   8]+0.028*[#  14]
          +0.028*[#  18]+0.022*[#  10]+0.015*[#   6]+0.007*[#  11]+0.007*[#  15]
          +0.004*[#  12]+0.004*[#  16]
    |psi|^2 = 0.988
==== e(  13) =    -3.90584 eV ==== 
     psi = 0.221*[#  14]+0.221*[#  18]+0.218*[#   5]+0.123*[#  12]+0.123*[#  16]
          +0.023*[#   9]+0.019*[#   8]+0.017*[#   7]+0.011*[#   6]+0.003*[#  11]
          +0.003*[#  15]+0.002*[#  10]
    |psi|^2 = 0.984
==== e(  14) =    -3.60347 eV ==== 
     psi = 0.421*[#   7]+0.188*[#   5]+0.115*[#  12]+0.115*[#  16]+0.064*[#  14]
          +0.064*[#  18]+0.009*[#   6]+0.008*[#   9]+0.006*[#   8]+0.002*[#  10]
          
    |psi|^2 = 0.994
==== e(  15) =    -3.42212 eV ==== 
     psi = 0.355*[#   6]+0.304*[#  13]+0.304*[#  17]+0.017*[#   5]
    |psi|^2 = 0.981
==== e(  16) =    -2.96059 eV ==== 
     psi = 0.267*[#  12]+0.267*[#  16]+0.111*[#   9]+0.093*[#   8]+0.070*[#   5]
          +0.060*[#  14]+0.060*[#  18]+0.049*[#   7]+0.007*[#  11]+0.007*[#  15]
          +0.003*[#   6]
    |psi|^2 = 0.995
==== e(  17) =    -2.19167 eV ==== 
     psi = 0.391*[#  13]+0.391*[#  17]+0.116*[#   8]+0.097*[#   9]+0.004*[#   6]
          
    |psi|^2 = 0.998
==== e(  18) =     1.95365 eV ==== 
     psi = 0.308*[#  10]+0.059*[#  14]+0.059*[#  18]+0.022*[#  12]+0.022*[#  16]
          +0.016*[#  11]+0.016*[#  15]+0.003*[#   5]+0.001*[#   1]+0.001*[#   7]
          
    |psi|^2 = 0.507
==== e(  19) =     2.93224 eV ==== 
     psi = 0.114*[#  10]+0.011*[#  12]+0.011*[#  16]+0.008*[#  11]+0.008*[#  15]
          +0.006*[#  14]+0.006*[#  18]+0.003*[#   5]
    |psi|^2 = 0.168
==== e(  20) =     3.22577 eV ==== 
     psi = 0.005*[#  10]+0.002*[#   5]+0.001*[#  14]+0.001*[#  18]
    |psi|^2 = 0.013

 k =   0.0000000000  0.3608439182  0.0000000000
==== e(   1) =  -106.00213 eV ==== 
     psi = 0.995*[#   1]+0.002*[#  14]+0.002*[#  18]
    |psi|^2 = 1.000
==== e(   2) =   -66.47572 eV ==== 
     psi = 0.999*[#   2]
    |psi|^2 = 1.000
==== e(   3) =   -66.42267 eV ==== 
     psi = 0.999*[#   4]
    |psi|^2 = 1.000
==== e(   4) =   -66.42242 eV ==== 
     psi = 0.999*[#   3]
    |psi|^2 = 1.000
==== e(   5) =   -15.14760 eV ==== 
     psi = 0.426*[#  11]+0.426*[#  15]+0.117*[#  10]+0.009*[#  14]+0.009*[#  18]
          +0.005*[#  12]+0.005*[#  16]
    |psi|^2 = 0.999
==== e(   6) =   -14.55734 eV ==== 
     psi = 0.486*[#  11]+0.486*[#  15]+0.009*[#   9]+0.007*[#   8]+0.003*[#  14]
          +0.003*[#  18]+0.002*[#  10]
    |psi|^2 = 0.999
==== e(   7) =    -6.78798 eV ==== 
     psi = 0.245*[#  14]+0.245*[#  18]+0.162*[#  10]+0.099*[#  12]+0.099*[#  16]
          +0.063*[#   5]+0.035*[#  11]+0.035*[#  15]+0.003*[#   6]+0.002*[#   1]
          +0.001*[#   7]
    |psi|^2 = 0.990
==== e(   8) =    -6.40834 eV ==== 
     psi = 0.250*[#  14]+0.250*[#  18]+0.111*[#  12]+0.111*[#  16]+0.102*[#   9]
          +0.085*[#   8]+0.047*[#   5]+0.012*[#  10]+0.007*[#  11]+0.007*[#  15]
          +0.006*[#   7]+0.002*[#   6]
    |psi|^2 = 0.989
==== e(   9) =    -5.77458 eV ==== 
     psi = 0.388*[#   8]+0.324*[#   9]+0.127*[#  13]+0.127*[#  17]+0.029*[#   6]
          +0.001*[#   5]
    |psi|^2 = 0.996
==== e(  10) =    -5.69773 eV ==== 
     psi = 0.214*[#  12]+0.214*[#  16]+0.132*[#   7]+0.126*[#   9]+0.106*[#   8]
          +0.096*[#  14]+0.096*[#  18]+0.002*[#  11]+0.002*[#  15]
    |psi|^2 = 0.989
==== e(  11) =    -4.51563 eV ==== 
     psi = 0.437*[#   6]+0.237*[#  13]+0.237*[#  17]+0.028*[#   8]+0.024*[#   9]
          +0.021*[#   5]
    |psi|^2 = 0.984
==== e(  12) =    -4.36680 eV ==== 
     psi = 0.177*[#  14]+0.177*[#  18]+0.174*[#   7]+0.158*[#   9]+0.132*[#   8]
          +0.076*[#  12]+0.076*[#  16]+0.008*[#  11]+0.008*[#  15]+0.001*[#   5]
          
    |psi|^2 = 0.990
==== e(  13) =    -4.20541 eV ==== 
     psi = 0.522*[#   5]+0.159*[#   7]+0.053*[#  12]+0.053*[#  16]+0.044*[#  14]
          +0.044*[#  18]+0.031*[#   9]+0.026*[#   8]+0.026*[#   6]+0.023*[#  10]
          +0.002*[#  11]+0.002*[#  15]
    |psi|^2 = 0.985
==== e(  14) =    -3.68913 eV ==== 
     psi = 0.471*[#   7]+0.240*[#   5]+0.089*[#  12]+0.089*[#  16]+0.037*[#  14]
          +0.037*[#  18]+0.012*[#   6]+0.008*[#   9]+0.007*[#   8]+0.003*[#  10]
          
    |psi|^2 = 0.994
==== e(  15) =    -3.64771 eV ==== 
     psi = 0.483*[#   6]+0.238*[#  13]+0.238*[#  17]+0.024*[#   5]
    |psi|^2 = 0.984
==== e(  16) =    -2.79816 eV ==== 
     psi = 0.302*[#  12]+0.302*[#  16]+0.106*[#   9]+0.089*[#   8]+0.063*[#   5]
          +0.049*[#   7]+0.035*[#  14]+0.035*[#  18]+0.005*[#  11]+0.005*[#  15]
          +0.003*[#   6]
    |psi|^2 = 0.995
==== e(  17) =    -2.22834 eV ==== 
     psi = 0.383*[#  13]+0.383*[#  17]+0.126*[#   8]+0.106*[#   9]
    |psi|^2 = 0.998
==== e(  18) =     1.49051 eV ==== 
     psi = 0.384*[#  10]+0.072*[#  14]+0.072*[#  18]+0.020*[#  12]+0.020*[#  16]
          +0.013*[#  11]+0.013*[#  15]+0.006*[#   5]+0.001*[#   1]
    |psi|^2 = 0.602
==== e(  19) =     3.05907 eV ==== 
     psi = 0.084*[#  10]+0.008*[#  12]+0.008*[#  16]+0.005*[#   5]+0.004*[#  11]
          +0.004*[#  15]+0.004*[#  14]+0.004*[#  18]
    |psi|^2 = 0.124
==== e(  20) =     3.48099 eV ==== 
     psi = 0.023*[#  10]+0.004*[#  14]+0.004*[#  18]+0.002*[#  12]+0.002*[#  16]
          +0.001*[#   5]+0.001*[#  11]+0.001*[#  15]
    |psi|^2 = 0.040

 k =   0.0000000000  0.4330127019  0.0000000000
==== e(   1) =  -106.00213 eV ==== 
     psi = 0.995*[#   1]+0.002*[#  14]+0.002*[#  18]
    |psi|^2 = 1.000
==== e(   2) =   -66.47570 eV ==== 
     psi = 0.999*[#   2]
    |psi|^2 = 1.000
==== e(   3) =   -66.42275 eV ==== 
     psi = 0.999*[#   4]
    |psi|^2 = 1.000
==== e(   4) =   -66.42244 eV ==== 
     psi = 0.999*[#   3]
    |psi|^2 = 1.000
==== e(   5) =   -14.94310 eV ==== 
     psi = 0.451*[#  11]+0.451*[#  15]+0.070*[#  10]+0.007*[#  14]+0.007*[#  18]
          +0.004*[#  12]+0.004*[#  16]+0.001*[#   9]
    |psi|^2 = 0.999
==== e(   6) =   -14.50524 eV ==== 
     psi = 0.484*[#  11]+0.484*[#  15]+0.011*[#   9]+0.009*[#   8]+0.006*[#  10]
          +0.001*[#   5]+0.001*[#  14]+0.001*[#  18]
    |psi|^2 = 0.999
==== e(   7) =    -7.18554 eV ==== 
     psi = 0.309*[#  14]+0.309*[#  18]+0.180*[#  10]+0.050*[#   5]+0.043*[#  12]
          +0.043*[#  16]+0.021*[#  11]+0.021*[#  15]+0.005*[#   9]+0.004*[#   8]
          +0.002*[#   6]+0.002*[#   1]
    |psi|^2 = 0.991
==== e(   8) =    -6.50873 eV ==== 
     psi = 0.318*[#  14]+0.318*[#  18]+0.097*[#  12]+0.097*[#  16]+0.059*[#   9]
          +0.050*[#   8]+0.024*[#   5]+0.009*[#  10]+0.006*[#  11]+0.006*[#  15]
          +0.001*[#   7]+0.001*[#   6]
    |psi|^2 = 0.987
==== e(   9) =    -5.77137 eV ==== 
     psi = 0.396*[#   8]+0.331*[#   9]+0.127*[#  13]+0.127*[#  17]+0.014*[#   6]
          
    |psi|^2 = 0.996
==== e(  10) =    -5.63207 eV ==== 
     psi = 0.246*[#  12]+0.246*[#  16]+0.159*[#   9]+0.133*[#   8]+0.099*[#   7]
          +0.033*[#  14]+0.033*[#  18]+0.028*[#   5]+0.006*[#  11]+0.006*[#  15]
          +0.001*[#   6]
    |psi|^2 = 0.991
==== e(  11) =    -4.62185 eV ==== 
     psi = 0.172*[#  12]+0.172*[#  16]+0.157*[#  14]+0.157*[#  18]+0.100*[#   9]
          +0.088*[#   7]+0.083*[#   8]+0.047*[#   5]+0.005*[#  11]+0.005*[#  15]
          +0.002*[#   6]+0.002*[#  10]
    |psi|^2 = 0.991
==== e(  12) =    -4.52231 eV ==== 
     psi = 0.323*[#  13]+0.323*[#  17]+0.298*[#   6]+0.015*[#   5]+0.012*[#   8]
          +0.010*[#   9]
    |psi|^2 = 0.980
==== e(  13) =    -4.25967 eV ==== 
     psi = 0.403*[#   5]+0.291*[#   7]+0.090*[#   9]+0.075*[#   8]+0.029*[#  12]
          +0.029*[#  16]+0.020*[#  10]+0.020*[#   6]+0.011*[#  14]+0.011*[#  18]
          +0.003*[#  11]+0.003*[#  15]
    |psi|^2 = 0.984
==== e(  14) =    -3.85296 eV ==== 
     psi = 0.634*[#   6]+0.161*[#  13]+0.161*[#  17]+0.031*[#   5]
    |psi|^2 = 0.988
==== e(  15) =    -3.79128 eV ==== 
     psi = 0.458*[#   7]+0.321*[#   5]+0.068*[#  12]+0.068*[#  16]+0.020*[#  14]
          +0.020*[#  18]+0.016*[#   6]+0.010*[#  10]+0.008*[#   9]+0.007*[#   8]
          
    |psi|^2 = 0.994
==== e(  16) =    -2.65327 eV ==== 
     psi = 0.300*[#  12]+0.300*[#  16]+0.110*[#   9]+0.092*[#   8]+0.059*[#   5]
          +0.055*[#   7]+0.034*[#  14]+0.034*[#  18]+0.004*[#  11]+0.004*[#  15]
          +0.003*[#   6]+0.001*[#  10]
    |psi|^2 = 0.995
==== e(  17) =    -2.25177 eV ==== 
     psi = 0.374*[#  13]+0.374*[#  17]+0.134*[#   8]+0.112*[#   9]+0.004*[#   6]
          
    |psi|^2 = 0.998
==== e(  18) =     1.13627 eV ==== 
     psi = 0.473*[#  10]+0.083*[#  14]+0.083*[#  18]+0.018*[#  12]+0.018*[#  16]
          +0.011*[#  11]+0.011*[#  15]+0.009*[#   5]+0.002*[#   1]
    |psi|^2 = 0.710
==== e(  19) =     3.05310 eV ==== 
     psi = 0.051*[#  10]+0.007*[#  12]+0.007*[#  16]+0.004*[#   5]+0.002*[#  11]
          +0.002*[#  15]+0.002*[#  14]+0.002*[#  18]
    |psi|^2 = 0.078
==== e(  20) =     3.49965 eV ==== 
     psi = 0.004*[#  10]+0.003*[#  14]+0.003*[#  18]+0.003*[#   5]+0.001*[#   7]
          
    |psi|^2 = 0.017

 k =   0.0000000000  0.5051814855  0.0000000000
==== e(   1) =  -106.00213 eV ==== 
     psi = 0.995*[#   1]+0.002*[#  14]+0.002*[#  18]
    |psi|^2 = 1.000
==== e(   2) =   -66.47569 eV ==== 
     psi = 0.999*[#   2]
    |psi|^2 = 1.000
==== e(   3) =   -66.42280 eV ==== 
     psi = 0.998*[#   4]
    |psi|^2 = 1.000
==== e(   4) =   -66.42245 eV ==== 
     psi = 0.999*[#   3]
    |psi|^2 = 1.000
==== e(   5) =   -14.77324 eV ==== 
     psi = 0.476*[#  11]+0.476*[#  15]+0.027*[#  10]+0.004*[#  14]+0.004*[#  18]
          +0.004*[#  12]+0.004*[#  16]+0.001*[#   9]
    |psi|^2 = 0.998
==== e(   6) =   -14.49380 eV ==== 
     psi = 0.478*[#  11]+0.478*[#  15]+0.018*[#  10]+0.013*[#   9]+0.011*[#   8]
          +0.002*[#   5]
    |psi|^2 = 0.999
==== e(   7) =    -7.48337 eV ==== 
     psi = 0.327*[#  14]+0.327*[#  18]+0.197*[#  10]+0.040*[#   5]+0.030*[#  12]
          +0.030*[#  16]+0.011*[#  11]+0.011*[#  15]+0.009*[#   9]+0.007*[#   8]
          +0.002*[#   1]+0.002*[#   6]+0.001*[#   7]
    |psi|^2 = 0.994
==== e(   8) =    -6.58217 eV ==== 
     psi = 0.375*[#  14]+0.375*[#  18]+0.091*[#  12]+0.091*[#  16]+0.017*[#   9]
          +0.014*[#   8]+0.007*[#   5]+0.005*[#  11]+0.005*[#  15]+0.003*[#  10]
          
    |psi|^2 = 0.986
==== e(   9) =    -5.77161 eV ==== 
     psi = 0.401*[#   8]+0.335*[#   9]+0.127*[#  13]+0.127*[#  17]+0.007*[#   6]
          
    |psi|^2 = 0.997
==== e(  10) =    -5.58334 eV ==== 
     psi = 0.231*[#   9]+0.193*[#   8]+0.192*[#  12]+0.192*[#  16]+0.083*[#   5]
          +0.056*[#   7]+0.014*[#  14]+0.014*[#  18]+0.008*[#  11]+0.008*[#  15]
          +0.004*[#   6]
    |psi|^2 = 0.995
==== e(  11) =    -4.68465 eV ==== 
     psi = 0.306*[#  12]+0.306*[#  16]+0.110*[#  14]+0.110*[#  18]+0.057*[#   7]
          +0.037*[#   9]+0.031*[#   8]+0.020*[#   5]+0.003*[#  10]+0.003*[#  11]
          +0.003*[#  15]
    |psi|^2 = 0.986
==== e(  12) =    -4.50185 eV ==== 
     psi = 0.423*[#  13]+0.423*[#  17]+0.118*[#   6]+0.006*[#   5]+0.003*[#   8]
          +0.002*[#   9]
    |psi|^2 = 0.975
==== e(  13) =    -4.30143 eV ==== 
     psi = 0.409*[#   7]+0.275*[#   5]+0.113*[#   9]+0.094*[#   8]+0.022*[#  12]
          +0.022*[#  16]+0.013*[#   6]+0.012*[#  10]+0.008*[#  14]+0.008*[#  18]
          +0.003*[#  11]+0.003*[#  15]
    |psi|^2 = 0.984
==== e(  14) =    -4.00823 eV ==== 
     psi = 0.818*[#   6]+0.068*[#  13]+0.068*[#  17]+0.040*[#   5]
    |psi|^2 = 0.994
==== e(  15) =    -3.89606 eV ==== 
     psi = 0.449*[#   5]+0.404*[#   7]+0.030*[#  12]+0.030*[#  16]+0.022*[#  10]
          +0.022*[#   6]+0.010*[#  14]+0.010*[#  18]+0.009*[#   9]+0.008*[#   8]
          
    |psi|^2 = 0.995
==== e(  16) =    -2.56485 eV ==== 
     psi = 0.290*[#  12]+0.290*[#  16]+0.114*[#   9]+0.095*[#   8]+0.065*[#   7]
          +0.055*[#   5]+0.037*[#  14]+0.037*[#  18]+0.004*[#  10]+0.004*[#  11]
          +0.004*[#  15]+0.003*[#   6]
    |psi|^2 = 0.996
==== e(  17) =    -2.26473 eV ==== 
     psi = 0.367*[#  13]+0.367*[#  17]+0.139*[#   8]+0.116*[#   9]+0.008*[#   6]
          
    |psi|^2 = 0.998
==== e(  18) =     0.92099 eV ==== 
     psi = 0.544*[#  10]+0.089*[#  14]+0.089*[#  18]+0.018*[#  12]+0.018*[#  16]
          +0.013*[#   5]+0.009*[#  11]+0.009*[#  15]+0.002*[#   1]
    |psi|^2 = 0.792
==== e(  19) =     2.99274 eV ==== 
     psi = 0.014*[#  10]+0.005*[#  12]+0.005*[#  16]
    |psi|^2 = 0.030
==== e(  20) =     3.53522 eV ==== 
     psi = 0.005*[#   5]+0.002*[#   7]+0.002*[#  14]+0.002*[#  18]
    |psi|^2 = 0.014

 k =   0.0000000000 -0.5773502692  0.0000000000
==== e(   1) =  -106.00213 eV ==== 
     psi = 0.995*[#   1]+0.002*[#  14]+0.002*[#  18]
    |psi|^2 = 1.000
==== e(   2) =   -66.47569 eV ==== 
     psi = 0.999*[#   2]
    |psi|^2 = 1.000
==== e(   3) =   -66.42282 eV ==== 
     psi = 0.998*[#   4]
    |psi|^2 = 1.000
==== e(   4) =   -66.42246 eV ==== 
     psi = 0.999*[#   3]
    |psi|^2 = 1.000
==== e(   5) =   -14.69585 eV ==== 
     psi = 0.492*[#  11]+0.492*[#  15]+0.004*[#  12]+0.004*[#  16]+0.002*[#  14]
          +0.002*[#  18]
    |psi|^2 = 0.997
==== e(   6) =   -14.50544 eV ==== 
     psi = 0.468*[#  11]+0.468*[#  15]+0.033*[#  10]+0.014*[#   9]+0.012*[#   8]
          +0.002*[#   5]+0.001*[#  14]+0.001*[#  18]
    |psi|^2 = 1.000
==== e(   7) =    -7.59051 eV ==== 
     psi = 0.332*[#  14]+0.332*[#  18]+0.204*[#  10]+0.037*[#   5]+0.027*[#  12]
          +0.027*[#  16]+0.010*[#   9]+0.008*[#   8]+0.006*[#  11]+0.006*[#  15]
          +0.002*[#   1]+0.002*[#   6]+0.002*[#   7]
    |psi|^2 = 0.995
==== e(   8) =    -6.60893 eV ==== 
     psi = 0.398*[#  14]+0.398*[#  18]+0.089*[#  12]+0.089*[#  16]+0.005*[#  11]
          +0.005*[#  15]
    |psi|^2 = 0.985
==== e(   9) =    -5.77219 eV ==== 
     psi = 0.402*[#   8]+0.336*[#   9]+0.127*[#  13]+0.127*[#  17]+0.005*[#   6]
          
    |psi|^2 = 0.997
==== e(  10) =    -5.58175 eV ==== 
     psi = 0.264*[#   9]+0.221*[#   8]+0.161*[#  12]+0.161*[#  16]+0.110*[#   5]
          +0.040*[#   7]+0.008*[#  11]+0.008*[#  14]+0.008*[#  15]+0.008*[#  18]
          +0.005*[#   6]
    |psi|^2 = 0.996
==== e(  11) =    -4.65570 eV ==== 
     psi = 0.396*[#  12]+0.396*[#  16]+0.093*[#  14]+0.093*[#  18]+0.002*[#  11]
          +0.002*[#  15]
    |psi|^2 = 0.982
==== e(  12) =    -4.48527 eV ==== 
     psi = 0.486*[#  13]+0.486*[#  17]
    |psi|^2 = 0.972
==== e(  13) =    -4.33041 eV ==== 
     psi = 0.520*[#   7]+0.192*[#   5]+0.128*[#   9]+0.107*[#   8]+0.009*[#   6]
          +0.007*[#  14]+0.007*[#  18]+0.006*[#  10]+0.003*[#  11]+0.003*[#  15]
          +0.001*[#  12]+0.001*[#  16]
    |psi|^2 = 0.984
==== e(  14) =    -4.07081 eV ==== 
     psi = 0.936*[#   6]+0.046*[#   5]+0.008*[#  13]+0.008*[#  17]
    |psi|^2 = 0.997
==== e(  15) =    -3.94531 eV ==== 
     psi = 0.535*[#   5]+0.362*[#   7]+0.032*[#  10]+0.026*[#   6]+0.011*[#   9]
          +0.009*[#   8]+0.006*[#  14]+0.006*[#  18]+0.004*[#  12]+0.004*[#  16]
          
    |psi|^2 = 0.996
==== e(  16) =    -2.53647 eV ==== 
     psi = 0.285*[#  12]+0.285*[#  16]+0.115*[#   9]+0.096*[#   8]+0.069*[#   7]
          +0.054*[#   5]+0.039*[#  14]+0.039*[#  18]+0.005*[#  10]+0.003*[#  11]
          +0.003*[#  15]+0.003*[#   6]
    |psi|^2 = 0.997
==== e(  17) =    -2.26888 eV ==== 
     psi = 0.364*[#  13]+0.364*[#  17]+0.141*[#   8]+0.118*[#   9]+0.010*[#   6]
          
    |psi|^2 = 0.998
==== e(  18) =     0.85008 eV ==== 
     psi = 0.570*[#  10]+0.091*[#  14]+0.091*[#  18]+0.018*[#  12]+0.018*[#  16]
          +0.015*[#   5]+0.009*[#  11]+0.009*[#  15]+0.002*[#   1]
    |psi|^2 = 0.823
==== e(  19) =     2.95852 eV ==== 
     psi = 0.005*[#  12]+0.005*[#  16]
    |psi|^2 = 0.011
==== e(  20) =     3.67868 eV ==== 
     psi = 0.007*[#   5]+0.004*[#   7]+0.002*[#  12]+0.002*[#  16]+0.001*[#   9]
          
    |psi|^2 = 0.019

 k =   0.0000000000 -0.5051814855  0.0000000000
==== e(   1) =  -106.00213 eV ==== 
     psi = 0.995*[#   1]+0.002*[#  14]+0.002*[#  18]
    |psi|^2 = 1.000
==== e(   2) =   -66.47569 eV ==== 
     psi = 0.999*[#   2]
    |psi|^2 = 1.000
==== e(   3) =   -66.42280 eV ==== 
     psi = 0.998*[#   4]
    |psi|^2 = 1.000
==== e(   4) =   -66.42245 eV ==== 
     psi = 0.999*[#   3]
    |psi|^2 = 1.000
==== e(   5) =   -14.77324 eV ==== 
     psi = 0.476*[#  11]+0.476*[#  15]+0.027*[#  10]+0.004*[#  14]+0.004*[#  18]
          +0.004*[#  12]+0.004*[#  16]+0.001*[#   9]
    |psi|^2 = 0.998
==== e(   6) =   -14.49380 eV ==== 
     psi = 0.478*[#  11]+0.478*[#  15]+0.018*[#  10]+0.013*[#   9]+0.011*[#   8]
          +0.002*[#   5]
    |psi|^2 = 0.999
==== e(   7) =    -7.48337 eV ==== 
     psi = 0.327*[#  14]+0.327*[#  18]+0.197*[#  10]+0.040*[#   5]+0.030*[#  12]
          +0.030*[#  16]+0.011*[#  11]+0.011*[#  15]+0.009*[#   9]+0.007*[#   8]
          +0.002*[#   1]+0.002*[#   6]+0.001*[#   7]
    |psi|^2 = 0.994
==== e(   8) =    -6.58217 eV ==== 
     psi = 0.375*[#  14]+0.375*[#  18]+0.091*[#  12]+0.091*[#  16]+0.017*[#   9]
          +0.014*[#   8]+0.007*[#   5]+0.005*[#  11]+0.005*[#  15]+0.003*[#  10]
          
    |psi|^2 = 0.986
==== e(   9) =    -5.77161 eV ==== 
     psi = 0.401*[#   8]+0.335*[#   9]+0.127*[#  13]+0.127*[#  17]+0.007*[#   6]
          
    |psi|^2 = 0.997
==== e(  10) =    -5.58334 eV ==== 
     psi = 0.231*[#   9]+0.193*[#   8]+0.192*[#  12]+0.192*[#  16]+0.083*[#   5]
          +0.056*[#   7]+0.014*[#  14]+0.014*[#  18]+0.008*[#  11]+0.008*[#  15]
          +0.004*[#   6]
    |psi|^2 = 0.995
==== e(  11) =    -4.68465 eV ==== 
     psi = 0.306*[#  12]+0.306*[#  16]+0.110*[#  14]+0.110*[#  18]+0.057*[#   7]
          +0.037*[#   9]+0.031*[#   8]+0.020*[#   5]+0.003*[#  10]+0.003*[#  11]
          +0.003*[#  15]
    |psi|^2 = 0.986
==== e(  12) =    -4.50185 eV ==== 
     psi = 0.423*[#  13]+0.423*[#  17]+0.118*[#   6]+0.006*[#   5]+0.003*[#   8]
          +0.002*[#   9]
    |psi|^2 = 0.975
==== e(  13) =    -4.30143 eV ==== 
     psi = 0.409*[#   7]+0.275*[#   5]+0.113*[#   9]+0.094*[#   8]+0.022*[#  12]
          +0.022*[#  16]+0.013*[#   6]+0.012*[#  10]+0.008*[#  14]+0.008*[#  18]
          +0.003*[#  11]+0.003*[#  15]
    |psi|^2 = 0.984
==== e(  14) =    -4.00823 eV ==== 
     psi = 0.818*[#   6]+0.068*[#  13]+0.068*[#  17]+0.040*[#   5]
    |psi|^2 = 0.994
==== e(  15) =    -3.89606 eV ==== 
     psi = 0.449*[#   5]+0.404*[#   7]+0.030*[#  12]+0.030*[#  16]+0.022*[#  10]
          +0.022*[#   6]+0.010*[#  14]+0.010*[#  18]+0.009*[#   9]+0.008*[#   8]
          
    |psi|^2 = 0.995
==== e(  16) =    -2.56485 eV ==== 
     psi = 0.290*[#  12]+0.290*[#  16]+0.114*[#   9]+0.095*[#   8]+0.065*[#   7]
          +0.055*[#   5]+0.037*[#  14]+0.037*[#  18]+0.004*[#  10]+0.004*[#  11]
          +0.004*[#  15]+0.003*[#   6]
    |psi|^2 = 0.996
==== e(  17) =    -2.26473 eV ==== 
     psi = 0.367*[#  13]+0.367*[#  17]+0.139*[#   8]+0.116*[#   9]+0.008*[#   6]
          
    |psi|^2 = 0.998
==== e(  18) =     0.92099 eV ==== 
     psi = 0.544*[#  10]+0.089*[#  14]+0.089*[#  18]+0.018*[#  12]+0.018*[#  16]
          +0.013*[#   5]+0.009*[#  11]+0.009*[#  15]+0.002*[#   1]
    |psi|^2 = 0.792
==== e(  19) =     2.99274 eV ==== 
     psi = 0.014*[#  10]+0.005*[#  12]+0.005*[#  16]
    |psi|^2 = 0.030
==== e(  20) =     3.53522 eV ==== 
     psi = 0.005*[#   5]+0.002*[#   7]+0.002*[#  14]+0.002*[#  18]
    |psi|^2 = 0.014

 k =   0.0000000000 -0.4330127019  0.0000000000
==== e(   1) =  -106.00213 eV ==== 
     psi = 0.995*[#   1]+0.002*[#  14]+0.002*[#  18]
    |psi|^2 = 1.000
==== e(   2) =   -66.47570 eV ==== 
     psi = 0.999*[#   2]
    |psi|^2 = 1.000
==== e(   3) =   -66.42275 eV ==== 
     psi = 0.999*[#   4]
    |psi|^2 = 1.000
==== e(   4) =   -66.42244 eV ==== 
     psi = 0.999*[#   3]
    |psi|^2 = 1.000
==== e(   5) =   -14.94310 eV ==== 
     psi = 0.451*[#  11]+0.451*[#  15]+0.070*[#  10]+0.007*[#  14]+0.007*[#  18]
          +0.004*[#  12]+0.004*[#  16]+0.001*[#   9]
    |psi|^2 = 0.999
==== e(   6) =   -14.50524 eV ==== 
     psi = 0.484*[#  11]+0.484*[#  15]+0.011*[#   9]+0.009*[#   8]+0.006*[#  10]
          +0.001*[#   5]+0.001*[#  14]+0.001*[#  18]
    |psi|^2 = 0.999
==== e(   7) =    -7.18554 eV ==== 
     psi = 0.309*[#  14]+0.309*[#  18]+0.180*[#  10]+0.050*[#   5]+0.043*[#  12]
          +0.043*[#  16]+0.021*[#  11]+0.021*[#  15]+0.005*[#   9]+0.004*[#   8]
          +0.002*[#   6]+0.002*[#   1]
    |psi|^2 = 0.991
==== e(   8) =    -6.50873 eV ==== 
     psi = 0.318*[#  14]+0.318*[#  18]+0.097*[#  12]+0.097*[#  16]+0.059*[#   9]
          +0.050*[#   8]+0.024*[#   5]+0.009*[#  10]+0.006*[#  11]+0.006*[#  15]
          +0.001*[#   7]+0.001*[#   6]
    |psi|^2 = 0.987
==== e(   9) =    -5.77137 eV ==== 
     psi = 0.396*[#   8]+0.331*[#   9]+0.127*[#  13]+0.127*[#  17]+0.014*[#   6]
          
    |psi|^2 = 0.996
==== e(  10) =    -5.63207 eV ==== 
     psi = 0.246*[#  12]+0.246*[#  16]+0.159*[#   9]+0.133*[#   8]+0.099*[#   7]
          +0.033*[#  14]+0.033*[#  18]+0.028*[#   5]+0.006*[#  11]+0.006*[#  15]
          +0.001*[#   6]
    |psi|^2 = 0.991
==== e(  11) =    -4.62185 eV ==== 
     psi = 0.172*[#  12]+0.172*[#  16]+0.157*[#  14]+0.157*[#  18]+0.100*[#   9]
          +0.088*[#   7]+0.083*[#   8]+0.047*[#   5]+0.005*[#  11]+0.005*[#  15]
          +0.002*[#   6]+0.002*[#  10]
    |psi|^2 = 0.991
==== e(  12) =    -4.52231 eV ==== 
     psi = 0.323*[#  13]+0.323*[#  17]+0.298*[#   6]+0.015*[#   5]+0.012*[#   8]
          +0.010*[#   9]
    |psi|^2 = 0.980
==== e(  13) =    -4.25967 eV ==== 
     psi = 0.403*[#   5]+0.291*[#   7]+0.090*[#   9]+0.075*[#   8]+0.029*[#  12]
          +0.029*[#  16]+0.020*[#  10]+0.020*[#   6]+0.011*[#  14]+0.011*[#  18]
          +0.003*[#  11]+0.003*[#  15]
    |psi|^2 = 0.984
==== e(  14) =    -3.85296 eV ==== 
     psi = 0.634*[#   6]+0.161*[#  13]+0.161*[#  17]+0.031*[#   5]
    |psi|^2 = 0.988
==== e(  15) =    -3.79128 eV ==== 
     psi = 0.458*[#   7]+0.321*[#   5]+0.068*[#  12]+0.068*[#  16]+0.020*[#  14]
          +0.020*[#  18]+0.016*[#   6]+0.010*[#  10]+0.008*[#   9]+0.007*[#   8]
          
    |psi|^2 = 0.994
==== e(  16) =    -2.65327 eV ==== 
     psi = 0.300*[#  12]+0.300*[#  16]+0.110*[#   9]+0.092*[#   8]+0.059*[#   5]
          +0.055*[#   7]+0.034*[#  14]+0.034*[#  18]+0.004*[#  11]+0.004*[#  15]
          +0.003*[#   6]+0.001*[#  10]
    |psi|^2 = 0.995
==== e(  17) =    -2.25177 eV ==== 
     psi = 0.374*[#  13]+0.374*[#  17]+0.134*[#   8]+0.112*[#   9]+0.004*[#   6]
          
    |psi|^2 = 0.998
==== e(  18) =     1.13627 eV ==== 
     psi = 0.473*[#  10]+0.083*[#  14]+0.083*[#  18]+0.018*[#  12]+0.018*[#  16]
          +0.011*[#  11]+0.011*[#  15]+0.009*[#   5]+0.002*[#   1]
    |psi|^2 = 0.710
==== e(  19) =     3.05310 eV ==== 
     psi = 0.051*[#  10]+0.007*[#  12]+0.007*[#  16]+0.004*[#   5]+0.002*[#  11]
          +0.002*[#  15]+0.002*[#  14]+0.002*[#  18]
    |psi|^2 = 0.078
==== e(  20) =     3.49965 eV ==== 
     psi = 0.004*[#  10]+0.003*[#  14]+0.003*[#  18]+0.003*[#   5]+0.001*[#   7]
          
    |psi|^2 = 0.017

 k =   0.0000000000 -0.3608439182  0.0000000000
==== e(   1) =  -106.00213 eV ==== 
     psi = 0.995*[#   1]+0.002*[#  14]+0.002*[#  18]
    |psi|^2 = 1.000
==== e(   2) =   -66.47572 eV ==== 
     psi = 0.999*[#   2]
    |psi|^2 = 1.000
==== e(   3) =   -66.42267 eV ==== 
     psi = 0.999*[#   4]
    |psi|^2 = 1.000
==== e(   4) =   -66.42242 eV ==== 
     psi = 0.999*[#   3]
    |psi|^2 = 1.000
==== e(   5) =   -15.14760 eV ==== 
     psi = 0.426*[#  11]+0.426*[#  15]+0.117*[#  10]+0.009*[#  14]+0.009*[#  18]
          +0.005*[#  12]+0.005*[#  16]
    |psi|^2 = 0.999
==== e(   6) =   -14.55734 eV ==== 
     psi = 0.486*[#  11]+0.486*[#  15]+0.009*[#   9]+0.007*[#   8]+0.003*[#  14]
          +0.003*[#  18]+0.002*[#  10]
    |psi|^2 = 0.999
==== e(   7) =    -6.78798 eV ==== 
     psi = 0.245*[#  14]+0.245*[#  18]+0.162*[#  10]+0.099*[#  12]+0.099*[#  16]
          +0.063*[#   5]+0.035*[#  11]+0.035*[#  15]+0.003*[#   6]+0.002*[#   1]
          +0.001*[#   7]
    |psi|^2 = 0.990
==== e(   8) =    -6.40834 eV ==== 
     psi = 0.250*[#  14]+0.250*[#  18]+0.111*[#  12]+0.111*[#  16]+0.102*[#   9]
          +0.085*[#   8]+0.047*[#   5]+0.012*[#  10]+0.007*[#  11]+0.007*[#  15]
          +0.006*[#   7]+0.002*[#   6]
    |psi|^2 = 0.989
==== e(   9) =    -5.77458 eV ==== 
     psi = 0.388*[#   8]+0.324*[#   9]+0.127*[#  13]+0.127*[#  17]+0.029*[#   6]
          +0.001*[#   5]
    |psi|^2 = 0.996
==== e(  10) =    -5.69773 eV ==== 
     psi = 0.214*[#  12]+0.214*[#  16]+0.132*[#   7]+0.126*[#   9]+0.106*[#   8]
          +0.096*[#  14]+0.096*[#  18]+0.002*[#  11]+0.002*[#  15]
    |psi|^2 = 0.989
==== e(  11) =    -4.51563 eV ==== 
     psi = 0.437*[#   6]+0.237*[#  13]+0.237*[#  17]+0.028*[#   8]+0.024*[#   9]
          +0.021*[#   5]
    |psi|^2 = 0.984
==== e(  12) =    -4.36680 eV ==== 
     psi = 0.177*[#  14]+0.177*[#  18]+0.174*[#   7]+0.158*[#   9]+0.132*[#   8]
          +0.076*[#  12]+0.076*[#  16]+0.008*[#  11]+0.008*[#  15]+0.001*[#   5]
          
    |psi|^2 = 0.990
==== e(  13) =    -4.20541 eV ==== 
     psi = 0.522*[#   5]+0.159*[#   7]+0.053*[#  12]+0.053*[#  16]+0.044*[#  14]
          +0.044*[#  18]+0.031*[#   9]+0.026*[#   8]+0.026*[#   6]+0.023*[#  10]
          +0.002*[#  11]+0.002*[#  15]
    |psi|^2 = 0.985
==== e(  14) =    -3.68913 eV ==== 
     psi = 0.471*[#   7]+0.240*[#   5]+0.089*[#  12]+0.089*[#  16]+0.037*[#  14]
          +0.037*[#  18]+0.012*[#   6]+0.008*[#   9]+0.007*[#   8]+0.003*[#  10]
          
    |psi|^2 = 0.994
==== e(  15) =    -3.64771 eV ==== 
     psi = 0.483*[#   6]+0.238*[#  13]+0.238*[#  17]+0.024*[#   5]
    |psi|^2 = 0.984
==== e(  16) =    -2.79816 eV ==== 
     psi = 0.302*[#  12]+0.302*[#  16]+0.106*[#   9]+0.089*[#   8]+0.063*[#   5]
          +0.049*[#   7]+0.035*[#  14]+0.035*[#  18]+0.005*[#  11]+0.005*[#  15]
          +0.003*[#   6]
    |psi|^2 = 0.995
==== e(  17) =    -2.22834 eV ==== 
     psi = 0.383*[#  13]+0.383*[#  17]+0.126*[#   8]+0.106*[#   9]
    |psi|^2 = 0.998
==== e(  18) =     1.49051 eV ==== 
     psi = 0.384*[#  10]+0.072*[#  14]+0.072*[#  18]+0.020*[#  12]+0.020*[#  16]
          +0.013*[#  11]+0.013*[#  15]+0.006*[#   5]+0.001*[#   1]
    |psi|^2 = 0.602
==== e(  19) =     3.05907 eV ==== 
     psi = 0.084*[#  10]+0.008*[#  12]+0.008*[#  16]+0.005*[#   5]+0.004*[#  11]
          +0.004*[#  15]+0.004*[#  14]+0.004*[#  18]
    |psi|^2 = 0.125
==== e(  20) =     3.48099 eV ==== 
     psi = 0.023*[#  10]+0.004*[#  14]+0.004*[#  18]+0.002*[#  12]+0.002*[#  16]
          +0.001*[#   5]+0.001*[#  11]+0.001*[#  15]
    |psi|^2 = 0.040

 k =   0.0000000000 -0.2886751346  0.0000000000
==== e(   1) =  -106.00214 eV ==== 
     psi = 0.995*[#   1]+0.001*[#  12]+0.001*[#  14]+0.001*[#  16]+0.001*[#  18]
          
    |psi|^2 = 1.000
==== e(   2) =   -66.47573 eV ==== 
     psi = 0.999*[#   2]
    |psi|^2 = 1.000
==== e(   3) =   -66.42258 eV ==== 
     psi = 0.999*[#   4]
    |psi|^2 = 1.000
==== e(   4) =   -66.42240 eV ==== 
     psi = 0.999*[#   3]
    |psi|^2 = 1.000
==== e(   5) =   -15.35323 eV ==== 
     psi = 0.405*[#  11]+0.405*[#  15]+0.163*[#  10]+0.008*[#  14]+0.008*[#  18]
          +0.005*[#  12]+0.005*[#  16]
    |psi|^2 = 0.999
==== e(   6) =   -14.63489 eV ==== 
     psi = 0.487*[#  11]+0.487*[#  15]+0.007*[#   9]+0.005*[#   8]+0.004*[#  14]
          +0.004*[#  18]
    |psi|^2 = 0.998
==== e(   7) =    -6.55652 eV ==== 
     psi = 0.277*[#  12]+0.277*[#  16]+0.135*[#  10]+0.075*[#  14]+0.075*[#  18]
          +0.045*[#  11]+0.045*[#  15]+0.039*[#   7]+0.024*[#   5]+0.002*[#   1]
          +0.001*[#   6]
    |psi|^2 = 0.994
==== e(   8) =    -6.27958 eV ==== 
     psi = 0.225*[#  14]+0.225*[#  18]+0.152*[#   9]+0.128*[#   8]+0.106*[#   5]
          +0.071*[#  12]+0.071*[#  16]+0.005*[#   6]+0.004*[#   7]
    |psi|^2 = 0.989
==== e(   9) =    -5.78289 eV ==== 
     psi = 0.376*[#   8]+0.314*[#   9]+0.126*[#  13]+0.126*[#  17]+0.051*[#   6]
          +0.003*[#   5]
    |psi|^2 = 0.995
==== e(  10) =    -5.51902 eV ==== 
     psi = 0.218*[#  14]+0.218*[#  18]+0.123*[#   7]+0.117*[#   9]+0.098*[#   8]
          +0.078*[#  12]+0.078*[#  16]+0.024*[#   5]+0.018*[#  10]+0.005*[#  11]
          +0.005*[#  15]+0.001*[#   6]
    |psi|^2 = 0.985
==== e(  11) =    -4.47689 eV ==== 
     psi = 0.538*[#   6]+0.165*[#  13]+0.165*[#  17]+0.051*[#   8]+0.042*[#   9]
          +0.026*[#   5]
    |psi|^2 = 0.987
==== e(  12) =    -4.21399 eV ==== 
     psi = 0.339*[#   7]+0.308*[#   5]+0.123*[#   9]+0.103*[#   8]+0.028*[#  14]
          +0.028*[#  18]+0.022*[#  10]+0.015*[#   6]+0.007*[#  11]+0.007*[#  15]
          +0.004*[#  12]+0.004*[#  16]
    |psi|^2 = 0.988
==== e(  13) =    -3.90584 eV ==== 
     psi = 0.221*[#  14]+0.221*[#  18]+0.218*[#   5]+0.123*[#  12]+0.123*[#  16]
          +0.023*[#   9]+0.019*[#   8]+0.017*[#   7]+0.011*[#   6]+0.003*[#  11]
          +0.003*[#  15]+0.002*[#  10]
    |psi|^2 = 0.984
==== e(  14) =    -3.60347 eV ==== 
     psi = 0.421*[#   7]+0.188*[#   5]+0.115*[#  12]+0.115*[#  16]+0.064*[#  14]
          +0.064*[#  18]+0.009*[#   6]+0.008*[#   9]+0.006*[#   8]+0.002*[#  10]
          
    |psi|^2 = 0.994
==== e(  15) =    -3.42212 eV ==== 
     psi = 0.355*[#   6]+0.304*[#  13]+0.304*[#  17]+0.017*[#   5]
    |psi|^2 = 0.981
==== e(  16) =    -2.96059 eV ==== 
     psi = 0.267*[#  12]+0.267*[#  16]+0.111*[#   9]+0.093*[#   8]+0.070*[#   5]
          +0.060*[#  14]+0.060*[#  18]+0.049*[#   7]+0.007*[#  11]+0.007*[#  15]
          +0.003*[#   6]
    |psi|^2 = 0.995
==== e(  17) =    -2.19167 eV ==== 
     psi = 0.391*[#  13]+0.391*[#  17]+0.116*[#   8]+0.097*[#   9]+0.004*[#   6]
          
    |psi|^2 = 0.998
==== e(  18) =     1.95365 eV ==== 
     psi = 0.308*[#  10]+0.059*[#  14]+0.059*[#  18]+0.022*[#  12]+0.022*[#  16]
          +0.016*[#  11]+0.016*[#  15]+0.003*[#   5]+0.001*[#   1]+0.001*[#   7]
          
    |psi|^2 = 0.507
==== e(  19) =     2.93224 eV ==== 
     psi = 0.114*[#  10]+0.011*[#  12]+0.011*[#  16]+0.008*[#  11]+0.008*[#  15]
          +0.006*[#  14]+0.006*[#  18]+0.003*[#   5]
    |psi|^2 = 0.168
==== e(  20) =     3.22577 eV ==== 
     psi = 0.005*[#  10]+0.002*[#   5]+0.001*[#  14]+0.001*[#  18]
    |psi|^2 = 0.013

 k =   0.0000000000 -0.2165063509  0.0000000000
==== e(   1) =  -106.00214 eV ==== 
     psi = 0.995*[#   1]+0.001*[#  12]+0.001*[#  16]
    |psi|^2 = 1.000
==== e(   2) =   -66.47575 eV ==== 
     psi = 0.999*[#   2]
    |psi|^2 = 1.000
==== e(   3) =   -66.42249 eV ==== 
     psi = 0.999*[#   4]
    |psi|^2 = 1.000
==== e(   4) =   -66.42238 eV ==== 
     psi = 0.999*[#   3]
    |psi|^2 = 1.000
==== e(   5) =   -15.53543 eV ==== 
     psi = 0.387*[#  11]+0.387*[#  15]+0.203*[#  10]+0.006*[#  14]+0.006*[#  18]
          +0.005*[#  12]+0.005*[#  16]
    |psi|^2 = 0.999
==== e(   6) =   -14.71796 eV ==== 
     psi = 0.489*[#  11]+0.489*[#  15]+0.004*[#  14]+0.004*[#  18]+0.004*[#   9]
          +0.003*[#   8]+0.002*[#  12]+0.002*[#  16]
    |psi|^2 = 0.998
==== e(   7) =    -6.62261 eV ==== 
     psi = 0.355*[#  12]+0.355*[#  16]+0.097*[#  10]+0.079*[#   7]+0.039*[#  11]
          +0.039*[#  15]+0.013*[#  14]+0.013*[#  18]+0.003*[#   5]+0.002*[#   1]
          
    |psi|^2 = 0.995
==== e(   8) =    -6.11088 eV ==== 
     psi = 0.228*[#   9]+0.191*[#   8]+0.177*[#  14]+0.177*[#  18]+0.122*[#   5]
          +0.046*[#  12]+0.046*[#  16]+0.006*[#   6]
    |psi|^2 = 0.992
==== e(   9) =    -5.79496 eV ==== 
     psi = 0.364*[#   8]+0.304*[#   9]+0.124*[#  13]+0.124*[#  17]+0.076*[#   6]
          +0.004*[#   5]
    |psi|^2 = 0.995
==== e(  10) =    -5.02392 eV ==== 
     psi = 0.234*[#  14]+0.234*[#  18]+0.132*[#   5]+0.109*[#   7]+0.103*[#   9]
          +0.086*[#   8]+0.028*[#  10]+0.014*[#  12]+0.014*[#  16]+0.010*[#  11]
          +0.010*[#  15]+0.006*[#   6]
    |psi|^2 = 0.983
==== e(  11) =    -4.41671 eV ==== 
     psi = 0.613*[#   6]+0.103*[#  13]+0.103*[#  17]+0.075*[#   8]+0.063*[#   9]
          +0.030*[#   5]
    |psi|^2 = 0.988
==== e(  12) =    -4.15708 eV ==== 
     psi = 0.395*[#   7]+0.322*[#   5]+0.076*[#   9]+0.064*[#   8]+0.029*[#  14]
          +0.029*[#  18]+0.027*[#  10]+0.016*[#   6]+0.008*[#  11]+0.008*[#  15]
          +0.007*[#  12]+0.007*[#  16]
    |psi|^2 = 0.989
==== e(  13) =    -3.55827 eV ==== 
     psi = 0.335*[#  12]+0.335*[#  16]+0.142*[#  14]+0.142*[#  18]+0.014*[#   5]
          +0.010*[#   7]+0.001*[#   9]+0.001*[#   8]
    |psi|^2 = 0.983
==== e(  14) =    -3.53019 eV ==== 
     psi = 0.360*[#   7]+0.252*[#   5]+0.107*[#  14]+0.107*[#  18]+0.074*[#  12]
          +0.074*[#  16]+0.012*[#   6]+0.002*[#  10]+0.002*[#  11]+0.002*[#  15]
          
    |psi|^2 = 0.993
==== e(  15) =    -3.20561 eV ==== 
     psi = 0.367*[#  13]+0.367*[#  17]+0.235*[#   6]+0.012*[#   5]
    |psi|^2 = 0.981
==== e(  16) =    -2.96486 eV ==== 
     psi = 0.206*[#  14]+0.206*[#  18]+0.128*[#   9]+0.107*[#   8]+0.096*[#   5]
          +0.094*[#  12]+0.094*[#  16]+0.038*[#   7]+0.009*[#  11]+0.009*[#  15]
          +0.005*[#   6]
    |psi|^2 = 0.993
==== e(  17) =    -2.13902 eV ==== 
     psi = 0.392*[#  13]+0.392*[#  17]+0.103*[#   8]+0.086*[#   9]+0.022*[#   6]
          +0.001*[#   5]
    |psi|^2 = 0.997
==== e(  18) =     2.43279 eV ==== 
     psi = 0.365*[#  10]+0.052*[#  14]+0.052*[#  18]+0.034*[#  12]+0.034*[#  16]
          +0.029*[#  11]+0.029*[#  15]+0.002*[#   5]+0.001*[#   7]
    |psi|^2 = 0.601
==== e(  19) =     2.67066 eV ==== 
     psi = 0.030*[#  10]+0.004*[#  12]+0.004*[#  16]+0.003*[#  11]+0.003*[#  15]
          
    |psi|^2 = 0.046
==== e(  20) =     3.00446 eV ==== 
     psi = 0.002*[#   5]+0.001*[#  10]
    |psi|^2 = 0.006

 k =   0.0000000000 -0.1443375673  0.0000000000
==== e(   1) =  -106.00214 eV ==== 
     psi = 0.995*[#   1]+0.002*[#  12]+0.002*[#  16]
    |psi|^2 = 1.000
==== e(   2) =   -66.47576 eV ==== 
     psi = 0.999*[#   2]
    |psi|^2 = 1.000
==== e(   3) =   -66.42241 eV ==== 
     psi = 0.999*[#   4]
    |psi|^2 = 1.000
==== e(   4) =   -66.42236 eV ==== 
     psi = 1.000*[#   3]
    |psi|^2 = 1.000
==== e(   5) =   -15.67673 eV ==== 
     psi = 0.374*[#  11]+0.374*[#  15]+0.234*[#  10]+0.005*[#  12]+0.005*[#  16]
          +0.003*[#  14]+0.003*[#  18]
    |psi|^2 = 1.000
==== e(   6) =   -14.78945 eV ==== 
     psi = 0.492*[#  11]+0.492*[#  15]+0.003*[#  14]+0.003*[#  18]+0.002*[#  12]
          +0.002*[#  16]+0.002*[#   9]+0.002*[#   8]
    |psi|^2 = 0.997
==== e(   7) =    -6.74380 eV ==== 
     psi = 0.369*[#  12]+0.369*[#  16]+0.093*[#   7]+0.081*[#  10]+0.036*[#  11]
          +0.036*[#  15]+0.003*[#  14]+0.003*[#  18]+0.002*[#   1]
    |psi|^2 = 0.994
==== e(   8) =    -5.96430 eV ==== 
     psi = 0.287*[#   9]+0.240*[#   8]+0.143*[#  14]+0.143*[#  18]+0.121*[#   5]
          +0.027*[#  12]+0.027*[#  16]+0.006*[#   6]
    |psi|^2 = 0.994
==== e(   9) =    -5.80737 eV ==== 
     psi = 0.353*[#   8]+0.295*[#   9]+0.121*[#  13]+0.121*[#  17]+0.099*[#   6]
          +0.005*[#   5]
    |psi|^2 = 0.995
==== e(  10) =    -4.54965 eV ==== 
     psi = 0.398*[#   5]+0.122*[#  14]+0.122*[#  18]+0.121*[#   9]+0.101*[#   8]
          +0.070*[#   7]+0.019*[#   6]+0.012*[#  10]+0.005*[#  12]+0.005*[#  16]
          +0.005*[#  11]+0.005*[#  15]
    |psi|^2 = 0.986
==== e(  11) =    -4.35320 eV ==== 
     psi = 0.669*[#   6]+0.098*[#   8]+0.082*[#   9]+0.054*[#  13]+0.054*[#  17]
          +0.033*[#   5]
    |psi|^2 = 0.989
==== e(  12) =    -4.07199 eV ==== 
     psi = 0.609*[#   7]+0.156*[#   5]+0.044*[#  14]+0.044*[#  18]+0.033*[#  10]
          +0.027*[#   9]+0.023*[#   8]+0.014*[#  12]+0.014*[#  16]+0.009*[#  11]
          +0.009*[#  15]+0.008*[#   6]
    |psi|^2 = 0.990
==== e(  13) =    -3.61879 eV ==== 
     psi = 0.455*[#  12]+0.455*[#  16]+0.030*[#   5]+0.019*[#  14]+0.019*[#  18]
          +0.003*[#   9]+0.003*[#   7]+0.002*[#   8]+0.001*[#   6]+0.001*[#  11]
          +0.001*[#  15]
    |psi|^2 = 0.991
==== e(  14) =    -3.32685 eV ==== 
     psi = 0.275*[#  14]+0.275*[#  18]+0.209*[#   7]+0.130*[#   5]+0.039*[#  12]
          +0.039*[#  16]+0.006*[#   6]+0.006*[#  10]+0.003*[#  11]+0.003*[#  15]
          +0.002*[#   9]+0.001*[#   8]
    |psi|^2 = 0.988
==== e(  15) =    -3.02982 eV ==== 
     psi = 0.427*[#  13]+0.427*[#  17]+0.121*[#   6]+0.006*[#   5]
    |psi|^2 = 0.982
==== e(  16) =    -2.58049 eV ==== 
     psi = 0.330*[#  14]+0.330*[#  18]+0.108*[#   5]+0.099*[#   9]+0.083*[#   8]
          +0.007*[#  12]+0.007*[#  16]+0.006*[#   7]+0.006*[#  11]+0.006*[#  15]
          +0.005*[#   6]
    |psi|^2 = 0.986
==== e(  17) =    -2.07318 eV ==== 
     psi = 0.385*[#  13]+0.385*[#  17]+0.091*[#   8]+0.076*[#   9]+0.058*[#   6]
          +0.003*[#   5]
    |psi|^2 = 0.998
==== e(  18) =     2.23659 eV ==== 
     psi = 0.317*[#  10]+0.037*[#  12]+0.037*[#  16]+0.035*[#  11]+0.035*[#  15]
          +0.020*[#  14]+0.020*[#  18]
    |psi|^2 = 0.503
==== e(  19) =     2.82127 eV ==== 
     psi = 0.003*[#  10]+0.001*[#  14]+0.001*[#  18]
    |psi|^2 = 0.007
==== e(  20) =     2.95466 eV ==== 
     psi = 0.087*[#  10]+0.015*[#  14]+0.015*[#  18]+0.009*[#  11]+0.009*[#  15]
          +0.009*[#  12]+0.009*[#  16]+0.002*[#   7]
    |psi|^2 = 0.157

 k =   0.0000000000 -0.0721687836  0.0000000000
==== e(   1) =  -106.00214 eV ==== 
     psi = 0.996*[#   1]+0.002*[#  12]+0.002*[#  16]
    |psi|^2 = 1.000
==== e(   2) =   -66.47577 eV ==== 
     psi = 0.999*[#   2]
    |psi|^2 = 1.000
==== e(   3) =   -66.42236 eV ==== 
     psi = 1.000*[#   4]
    |psi|^2 = 1.000
==== e(   4) =   -66.42234 eV ==== 
     psi = 1.000*[#   3]
    |psi|^2 = 1.000
==== e(   5) =   -15.76573 eV ==== 
     psi = 0.367*[#  11]+0.367*[#  15]+0.254*[#  10]+0.005*[#  12]+0.005*[#  16]
          +0.001*[#   1]
    |psi|^2 = 1.000
==== e(   6) =   -14.83712 eV ==== 
     psi = 0.494*[#  11]+0.494*[#  15]+0.003*[#  12]+0.003*[#  16]
    |psi|^2 = 0.997
==== e(   7) =    -6.83187 eV ==== 
     psi = 0.373*[#  12]+0.373*[#  16]+0.099*[#   7]+0.074*[#  10]+0.036*[#  11]
          +0.036*[#  15]+0.002*[#   1]
    |psi|^2 = 0.994
==== e(   8) =    -5.85908 eV ==== 
     psi = 0.329*[#   9]+0.275*[#   8]+0.125*[#  14]+0.125*[#  18]+0.120*[#   5]
          +0.008*[#  12]+0.008*[#  16]+0.006*[#   6]
    |psi|^2 = 0.995
==== e(   9) =    -5.81651 eV ==== 
     psi = 0.346*[#   8]+0.290*[#   9]+0.120*[#  13]+0.120*[#  17]+0.114*[#   6]
          +0.006*[#   5]
    |psi|^2 = 0.995
==== e(  10) =    -4.33452 eV ==== 
     psi = 0.659*[#   5]+0.127*[#   9]+0.106*[#   8]+0.032*[#   6]+0.025*[#  14]
          +0.025*[#  18]+0.006*[#   7]+0.003*[#  12]+0.003*[#  16]
    |psi|^2 = 0.989
==== e(  11) =    -4.30543 eV ==== 
     psi = 0.705*[#   6]+0.114*[#   8]+0.095*[#   9]+0.035*[#   5]+0.021*[#  13]
          +0.021*[#  17]
    |psi|^2 = 0.990
==== e(  12) =    -3.96386 eV ==== 
     psi = 0.838*[#   7]+0.029*[#  10]+0.028*[#  12]+0.028*[#  16]+0.019*[#  14]
          +0.019*[#  18]+0.010*[#   5]+0.008*[#  11]+0.008*[#  15]+0.001*[#   9]
          +0.001*[#   8]
    |psi|^2 = 0.992
==== e(  13) =    -3.74042 eV ==== 
     psi = 0.483*[#  12]+0.483*[#  16]+0.013*[#   5]+0.003*[#  14]+0.003*[#  18]
          +0.002*[#  11]+0.002*[#  15]+0.002*[#   9]+0.001*[#   8]
    |psi|^2 = 0.994
==== e(  14) =    -3.04027 eV ==== 
     psi = 0.436*[#  14]+0.436*[#  18]+0.044*[#   7]+0.035*[#   5]+0.011*[#  12]
          +0.011*[#  16]+0.005*[#  10]+0.002*[#  11]+0.002*[#  15]+0.002*[#   6]
          
    |psi|^2 = 0.985
==== e(  15) =    -2.91901 eV ==== 
     psi = 0.474*[#  13]+0.474*[#  17]+0.033*[#   6]+0.002*[#   5]
    |psi|^2 = 0.983
==== e(  16) =    -2.16229 eV ==== 
     psi = 0.362*[#  14]+0.362*[#  18]+0.108*[#   5]+0.082*[#   9]+0.069*[#   8]
          +0.005*[#   6]+0.002*[#  11]+0.002*[#  15]
    |psi|^2 = 0.992
==== e(  17) =    -2.01211 eV ==== 
     psi = 0.375*[#  13]+0.375*[#  17]+0.094*[#   6]+0.081*[#   8]+0.068*[#   9]
          +0.005*[#   5]
    |psi|^2 = 0.998
==== e(  18) =     1.91150 eV ==== 
     psi = 0.372*[#  10]+0.050*[#  11]+0.050*[#  15]+0.047*[#  12]+0.047*[#  16]
          +0.008*[#  14]+0.008*[#  18]
    |psi|^2 = 0.585
==== e(  19) =     2.70327 eV ==== 
     psi = 0.001*[#  14]+0.001*[#  18]
    |psi|^2 = 0.006
==== e(  20) =     2.75371 eV ==== 
     psi = 0.002*[#  14]+0.002*[#  18]
    |psi|^2 = 0.007

 k =   0.0625000000  0.0360843918  0.0000000000
==== e(   1) =  -106.00214 eV ==== 
     psi = 0.996*[#   1]+0.002*[#  12]+0.002*[#  16]
    |psi|^2 = 1.000
==== e(   2) =   -66.47577 eV ==== 
     psi = 0.999*[#   2]
    |psi|^2 = 1.000
==== e(   3) =   -66.42236 eV ==== 
     psi = 0.750*[#   3]+0.250*[#   4]
    |psi|^2 = 1.000
==== e(   4) =   -66.42234 eV ==== 
     psi = 0.750*[#   4]+0.250*[#   3]
    |psi|^2 = 1.000
==== e(   5) =   -15.76573 eV ==== 
     psi = 0.367*[#  11]+0.367*[#  15]+0.254*[#  10]+0.005*[#  12]+0.005*[#  16]
          +0.001*[#   1]
    |psi|^2 = 1.000
==== e(   6) =   -14.83712 eV ==== 
     psi = 0.494*[#  11]+0.494*[#  15]+0.003*[#  12]+0.003*[#  16]
    |psi|^2 = 0.997
==== e(   7) =    -6.83187 eV ==== 
     psi = 0.373*[#  12]+0.373*[#  16]+0.099*[#   7]+0.074*[#  10]+0.036*[#  11]
          +0.036*[#  15]+0.002*[#   1]
    |psi|^2 = 0.994
==== e(   8) =    -5.85908 eV ==== 
     psi = 0.575*[#   8]+0.093*[#  13]+0.093*[#  17]+0.068*[#   6]+0.057*[#   5]
          +0.031*[#  14]+0.031*[#  18]+0.028*[#   9]+0.008*[#  12]+0.008*[#  16]
          
    |psi|^2 = 0.995
==== e(   9) =    -5.81651 eV ==== 
     psi = 0.607*[#   9]+0.090*[#  14]+0.090*[#  18]+0.065*[#   5]+0.054*[#   6]
          +0.030*[#  13]+0.030*[#  17]+0.030*[#   8]
    |psi|^2 = 0.995
==== e(  10) =    -4.33452 eV ==== 
     psi = 0.376*[#   6]+0.315*[#   5]+0.223*[#   8]+0.019*[#  13]+0.019*[#  17]
          +0.011*[#   9]+0.006*[#  14]+0.006*[#  18]+0.006*[#   7]+0.003*[#  12]
          +0.003*[#  16]
    |psi|^2 = 0.989
==== e(  11) =    -4.30543 eV ==== 
     psi = 0.402*[#   5]+0.337*[#   6]+0.200*[#   9]+0.015*[#  14]+0.015*[#  18]
          +0.010*[#   8]+0.005*[#  13]+0.005*[#  17]
    |psi|^2 = 0.990
==== e(  12) =    -3.96386 eV ==== 
     psi = 0.838*[#   7]+0.029*[#  10]+0.028*[#  12]+0.028*[#  16]+0.014*[#  13]
          +0.014*[#  17]+0.008*[#  11]+0.008*[#  15]+0.006*[#   6]+0.005*[#   5]
          +0.005*[#  14]+0.005*[#  18]+0.002*[#   8]
    |psi|^2 = 0.992
==== e(  13) =    -3.74042 eV ==== 
     psi = 0.483*[#  12]+0.483*[#  16]+0.007*[#   6]+0.006*[#   5]+0.003*[#   8]
          +0.003*[#  13]+0.003*[#  17]+0.002*[#  11]+0.002*[#  15]
    |psi|^2 = 0.994
==== e(  14) =    -3.04027 eV ==== 
     psi = 0.327*[#  13]+0.327*[#  17]+0.109*[#  14]+0.109*[#  18]+0.044*[#   7]
          +0.020*[#   6]+0.017*[#   5]+0.011*[#  12]+0.011*[#  16]+0.005*[#  10]
          +0.002*[#  11]+0.002*[#  15]
    |psi|^2 = 0.985
==== e(  15) =    -2.91901 eV ==== 
     psi = 0.355*[#  14]+0.355*[#  18]+0.118*[#  13]+0.118*[#  17]+0.019*[#   5]
          +0.016*[#   6]
    |psi|^2 = 0.983
==== e(  16) =    -2.16229 eV ==== 
     psi = 0.271*[#  13]+0.271*[#  17]+0.144*[#   8]+0.090*[#  14]+0.090*[#  18]
          +0.062*[#   6]+0.052*[#   5]+0.007*[#   9]+0.002*[#  11]+0.002*[#  15]
          
    |psi|^2 = 0.992
==== e(  17) =    -2.01211 eV ==== 
     psi = 0.281*[#  14]+0.281*[#  18]+0.142*[#   9]+0.094*[#  13]+0.094*[#  17]
          +0.054*[#   5]+0.045*[#   6]+0.007*[#   8]
    |psi|^2 = 0.998
==== e(  18) =     1.91150 eV ==== 
     psi = 0.372*[#  10]+0.050*[#  11]+0.050*[#  15]+0.047*[#  12]+0.047*[#  16]
          +0.006*[#  13]+0.006*[#  17]+0.002*[#  14]+0.002*[#  18]
    |psi|^2 = 0.585
==== e(  19) =     2.70327 eV ==== 
     psi = 0.001*[#  13]+0.001*[#  17]
    |psi|^2 = 0.006
==== e(  20) =     2.75371 eV ==== 
     psi = 0.001*[#  13]+0.001*[#  17]
    |psi|^2 = 0.007

 k =   0.0625000000  0.1082531755  0.0000000000
==== e(   1) =  -106.00214 eV ==== 
     psi = 0.995*[#   1]+0.002*[#  12]+0.002*[#  16]
    |psi|^2 = 1.000
==== e(   2) =   -66.47577 eV ==== 
     psi = 0.999*[#   2]
    |psi|^2 = 1.000
==== e(   3) =   -66.42239 eV ==== 
     psi = 0.750*[#   4]+0.250*[#   3]
    |psi|^2 = 1.000
==== e(   4) =   -66.42235 eV ==== 
     psi = 0.750*[#   3]+0.250*[#   4]
    |psi|^2 = 1.000
==== e(   5) =   -15.70605 eV ==== 
     psi = 0.372*[#  11]+0.372*[#  15]+0.241*[#  10]+0.005*[#  12]+0.005*[#  16]
          +0.002*[#  14]+0.002*[#  18]
    |psi|^2 = 1.000
==== e(   6) =   -14.80493 eV ==== 
     psi = 0.493*[#  11]+0.493*[#  15]+0.002*[#   8]+0.002*[#  12]+0.002*[#  16]
          +0.002*[#  14]+0.002*[#  18]
    |psi|^2 = 0.997
==== e(   7) =    -6.77209 eV ==== 
     psi = 0.371*[#  12]+0.371*[#  16]+0.096*[#   7]+0.079*[#  10]+0.036*[#  11]
          +0.036*[#  15]+0.002*[#   1]+0.001*[#  14]+0.001*[#  18]
    |psi|^2 = 0.994
==== e(   8) =    -5.92944 eV ==== 
     psi = 0.502*[#   8]+0.116*[#   5]+0.102*[#  14]+0.102*[#  18]+0.050*[#   9]
          +0.034*[#  13]+0.034*[#  17]+0.022*[#  12]+0.022*[#  16]+0.012*[#   6]
          
    |psi|^2 = 0.994
==== e(   9) =    -5.81218 eV ==== 
     psi = 0.586*[#   9]+0.098*[#   6]+0.090*[#  13]+0.090*[#  17]+0.059*[#   8]
          +0.031*[#  14]+0.031*[#  18]+0.010*[#   5]
    |psi|^2 = 0.995
==== e(  10) =    -4.41260 eV ==== 
     psi = 0.559*[#   5]+0.243*[#   8]+0.056*[#   6]+0.027*[#  13]+0.027*[#  17]
          +0.024*[#   9]+0.019*[#  14]+0.019*[#  18]+0.006*[#  12]+0.006*[#  16]
          
    |psi|^2 = 0.988
==== e(  11) =    -4.39413 eV ==== 
     psi = 0.526*[#   6]+0.142*[#   9]+0.065*[#   7]+0.057*[#  14]+0.057*[#  18]
          +0.052*[#   5]+0.030*[#  13]+0.030*[#  17]+0.014*[#   8]+0.008*[#  10]
          +0.003*[#  11]+0.003*[#  15]
    |psi|^2 = 0.988
==== e(  12) =    -4.03839 eV ==== 
     psi = 0.668*[#   7]+0.120*[#   6]+0.032*[#  10]+0.029*[#  14]+0.029*[#  18]
          +0.026*[#   9]+0.017*[#  12]+0.017*[#  16]+0.012*[#   5]+0.010*[#  13]
          +0.010*[#  17]+0.009*[#  11]+0.009*[#  15]+0.003*[#   8]
    |psi|^2 = 0.991
==== e(  13) =    -3.65319 eV ==== 
     psi = 0.466*[#  12]+0.466*[#  16]+0.024*[#   5]+0.009*[#  14]+0.009*[#  18]
          +0.006*[#   8]+0.003*[#  13]+0.003*[#  17]+0.002*[#   6]+0.002*[#  11]
          +0.002*[#  15]
    |psi|^2 = 0.992
==== e(  14) =    -3.24833 eV ==== 
     psi = 0.238*[#  14]+0.238*[#  18]+0.159*[#   7]+0.093*[#  13]+0.093*[#  17]
          +0.080*[#   6]+0.030*[#  12]+0.030*[#  16]+0.008*[#   5]+0.007*[#  10]
          +0.004*[#  11]+0.004*[#  15]+0.003*[#   9]
    |psi|^2 = 0.987
==== e(  15) =    -3.02546 eV ==== 
     psi = 0.275*[#  13]+0.275*[#  17]+0.142*[#  14]+0.142*[#  18]+0.130*[#   5]
          +0.013*[#   6]+0.001*[#   8]
    |psi|^2 = 0.982
==== e(  16) =    -2.38782 eV ==== 
     psi = 0.217*[#  14]+0.217*[#  18]+0.150*[#  13]+0.150*[#  17]+0.150*[#   8]
          +0.073*[#   5]+0.015*[#   9]+0.007*[#   6]+0.003*[#  11]+0.003*[#  15]
          +0.001*[#  12]+0.001*[#  16]
    |psi|^2 = 0.989
==== e(  17) =    -2.10471 eV ==== 
     psi = 0.262*[#  13]+0.262*[#  17]+0.147*[#   9]+0.110*[#  14]+0.110*[#  18]
          +0.077*[#   6]+0.015*[#   8]+0.008*[#   5]
    |psi|^2 = 0.995
==== e(  18) =     2.14531 eV ==== 
     psi = 0.328*[#  10]+0.039*[#  12]+0.039*[#  16]+0.039*[#  11]+0.039*[#  15]
          +0.013*[#  14]+0.013*[#  18]+0.004*[#  13]+0.004*[#  17]
    |psi|^2 = 0.518
==== e(  19) =     2.78990 eV ==== 
 
    |psi|^2 = 0.002
==== e(  20) =     3.10825 eV ==== 
     psi = 0.004*[#  14]+0.004*[#  18]+0.002*[#  13]+0.002*[#  17]
    |psi|^2 = 0.015

 k =   0.0625000000  0.1804219591  0.0000000000
==== e(   1) =  -106.00214 eV ==== 
     psi = 0.995*[#   1]+0.002*[#  12]+0.002*[#  16]
    |psi|^2 = 1.000
==== e(   2) =   -66.47576 eV ==== 
     psi = 0.999*[#   2]
    |psi|^2 = 1.000
==== e(   3) =   -66.42246 eV ==== 
     psi = 0.901*[#   4]+0.098*[#   3]
    |psi|^2 = 1.000
==== e(   4) =   -66.42237 eV ==== 
     psi = 0.901*[#   3]+0.098*[#   4]
    |psi|^2 = 1.000
==== e(   5) =   -15.59083 eV ==== 
     psi = 0.382*[#  11]+0.382*[#  15]+0.215*[#  10]+0.005*[#  12]+0.005*[#  16]
          +0.004*[#  14]+0.004*[#  18]
    |psi|^2 = 1.000
==== e(   6) =   -14.74525 eV ==== 
     psi = 0.490*[#  11]+0.490*[#  15]+0.005*[#   8]+0.003*[#  14]+0.003*[#  18]
          +0.002*[#  12]+0.002*[#  16]+0.001*[#   9]
    |psi|^2 = 0.998
==== e(   7) =    -6.66566 eV ==== 
     psi = 0.363*[#  12]+0.363*[#  16]+0.090*[#  10]+0.086*[#   7]+0.038*[#  11]
          +0.038*[#  15]+0.006*[#  14]+0.006*[#  18]+0.002*[#   1]
    |psi|^2 = 0.995
==== e(   8) =    -6.04984 eV ==== 
     psi = 0.351*[#   8]+0.145*[#  14]+0.145*[#  18]+0.128*[#   5]+0.112*[#   9]
          +0.040*[#  12]+0.040*[#  16]+0.016*[#  13]+0.016*[#  17]+0.001*[#   6]
          
    |psi|^2 = 0.993
==== e(   9) =    -5.80739 eV ==== 
     psi = 0.503*[#   9]+0.156*[#   8]+0.110*[#  13]+0.110*[#  17]+0.086*[#   6]
          +0.015*[#  14]+0.015*[#  18]
    |psi|^2 = 0.995
==== e(  10) =    -4.75414 eV ==== 
     psi = 0.197*[#  14]+0.197*[#  18]+0.185*[#   5]+0.119*[#   7]+0.086*[#   9]
          +0.067*[#   8]+0.062*[#   6]+0.025*[#  10]+0.009*[#  11]+0.009*[#  15]
          +0.007*[#  13]+0.007*[#  17]+0.006*[#  12]+0.006*[#  16]
    |psi|^2 = 0.984
==== e(  11) =    -4.50548 eV ==== 
     psi = 0.312*[#   6]+0.219*[#   8]+0.188*[#   5]+0.102*[#  13]+0.102*[#  17]
          +0.035*[#   7]+0.007*[#  14]+0.007*[#  18]+0.005*[#  10]+0.002*[#  11]
          +0.002*[#  15]+0.002*[#  12]+0.002*[#  16]
    |psi|^2 = 0.986
==== e(  12) =    -4.10792 eV ==== 
     psi = 0.389*[#   7]+0.305*[#   6]+0.105*[#   5]+0.090*[#   9]+0.024*[#  10]
          +0.022*[#  14]+0.022*[#  18]+0.008*[#  12]+0.008*[#  16]+0.007*[#  11]
          +0.007*[#  15]+0.001*[#  13]+0.001*[#  17]
    |psi|^2 = 0.990
==== e(  13) =    -3.54599 eV ==== 
     psi = 0.424*[#  12]+0.424*[#  16]+0.051*[#  14]+0.051*[#  18]+0.015*[#   5]
          +0.007*[#  13]+0.007*[#  17]+0.007*[#   7]+0.002*[#   8]
    |psi|^2 = 0.988
==== e(  14) =    -3.45556 eV ==== 
     psi = 0.341*[#   7]+0.167*[#  14]+0.167*[#  18]+0.107*[#   5]+0.068*[#   6]
          +0.049*[#  12]+0.049*[#  16]+0.014*[#  13]+0.014*[#  17]+0.005*[#   9]
          +0.004*[#  10]+0.002*[#  11]+0.002*[#  15]
    |psi|^2 = 0.990
==== e(  15) =    -3.24390 eV ==== 
     psi = 0.239*[#  13]+0.239*[#  17]+0.225*[#   5]+0.099*[#   6]+0.068*[#  14]
          +0.068*[#  18]+0.010*[#   8]+0.009*[#   7]+0.007*[#   9]+0.007*[#  12]
          +0.007*[#  16]+0.002*[#  11]+0.002*[#  15]
    |psi|^2 = 0.984
==== e(  16) =    -2.68038 eV ==== 
     psi = 0.227*[#  14]+0.227*[#  18]+0.120*[#  13]+0.120*[#  17]+0.111*[#   8]
          +0.078*[#   9]+0.036*[#   5]+0.021*[#  12]+0.021*[#  16]+0.011*[#   6]
          +0.005*[#  11]+0.005*[#  15]+0.004*[#   7]
    |psi|^2 = 0.989
==== e(  17) =    -2.22623 eV ==== 
     psi = 0.358*[#  13]+0.358*[#  17]+0.111*[#   9]+0.074*[#   8]+0.047*[#   6]
          +0.019*[#  14]+0.019*[#  18]+0.002*[#  12]+0.002*[#  16]+0.001*[#   7]
          
    |psi|^2 = 0.993
==== e(  18) =     2.47103 eV ==== 
     psi = 0.321*[#  10]+0.034*[#  12]+0.034*[#  16]+0.030*[#  11]+0.030*[#  15]
          +0.025*[#  14]+0.025*[#  18]+0.003*[#  13]+0.003*[#  17]
    |psi|^2 = 0.508
==== e(  19) =     2.86619 eV ==== 
     psi = 0.068*[#  10]+0.015*[#  14]+0.015*[#  18]+0.006*[#  12]+0.006*[#  16]
          +0.006*[#  11]+0.006*[#  15]+0.002*[#  13]+0.002*[#  17]+0.002*[#   7]
          
    |psi|^2 = 0.129
==== e(  20) =     2.95284 eV ==== 
     psi = 0.044*[#  10]+0.007*[#  14]+0.007*[#  18]+0.004*[#  12]+0.004*[#  16]
          +0.004*[#  11]+0.004*[#  15]+0.003*[#  13]+0.003*[#  17]+0.001*[#   5]
          +0.001*[#   7]
    |psi|^2 = 0.082

 k =   0.0625000000  0.2525907428  0.0000000000
==== e(   1) =  -106.00214 eV ==== 
     psi = 0.995*[#   1]+0.001*[#  12]+0.001*[#  16]
    |psi|^2 = 1.000
==== e(   2) =   -66.47574 eV ==== 
     psi = 0.999*[#   2]
    |psi|^2 = 1.000
==== e(   3) =   -66.42254 eV ==== 
     psi = 0.954*[#   4]+0.045*[#   3]
    |psi|^2 = 1.000
==== e(   4) =   -66.42239 eV ==== 
     psi = 0.955*[#   3]+0.045*[#   4]
    |psi|^2 = 1.000
==== e(   5) =   -15.42888 eV ==== 
     psi = 0.397*[#  11]+0.397*[#  15]+0.180*[#  10]+0.007*[#  14]+0.007*[#  18]
          +0.005*[#  12]+0.005*[#  16]
    |psi|^2 = 0.999
==== e(   6) =   -14.66762 eV ==== 
     psi = 0.488*[#  11]+0.488*[#  15]+0.007*[#   8]+0.004*[#  14]+0.004*[#  18]
          +0.003*[#   9]+0.001*[#  12]+0.001*[#  16]
    |psi|^2 = 0.998
==== e(   7) =    -6.55851 eV ==== 
     psi = 0.327*[#  12]+0.327*[#  16]+0.115*[#  10]+0.060*[#   7]+0.042*[#  11]
          +0.042*[#  15]+0.033*[#  14]+0.033*[#  18]+0.006*[#   5]+0.002*[#   1]
          +0.002*[#   9]+0.002*[#   6]+0.002*[#  13]+0.002*[#  17]
    |psi|^2 = 0.994
==== e(   8) =    -6.19995 eV ==== 
     psi = 0.224*[#   8]+0.195*[#  14]+0.195*[#  18]+0.128*[#   5]+0.118*[#   9]
          +0.057*[#  12]+0.057*[#  16]+0.008*[#  13]+0.008*[#  17]
    |psi|^2 = 0.990
==== e(   9) =    -5.80596 eV ==== 
     psi = 0.465*[#   9]+0.207*[#   8]+0.115*[#  13]+0.115*[#  17]+0.059*[#   6]
          +0.012*[#  14]+0.012*[#  18]+0.003*[#  12]+0.003*[#  16]+0.002*[#   7]
          
    |psi|^2 = 0.995
==== e(  10) =    -5.27047 eV ==== 
     psi = 0.241*[#  14]+0.241*[#  18]+0.122*[#   7]+0.118*[#   8]+0.055*[#   5]
          +0.048*[#   9]+0.035*[#  12]+0.035*[#  16]+0.029*[#  10]+0.020*[#   6]
          +0.010*[#  13]+0.010*[#  17]+0.009*[#  11]+0.009*[#  15]
    |psi|^2 = 0.983
==== e(  11) =    -4.60878 eV ==== 
     psi = 0.256*[#   6]+0.210*[#   8]+0.153*[#  13]+0.153*[#  17]+0.140*[#   5]
          +0.042*[#   7]+0.007*[#  14]+0.007*[#  18]+0.006*[#  10]+0.003*[#  11]
          +0.003*[#  15]+0.003*[#   9]
    |psi|^2 = 0.985
==== e(  12) =    -4.14091 eV ==== 
     psi = 0.375*[#   6]+0.273*[#   7]+0.152*[#   5]+0.116*[#   9]+0.018*[#  10]
          +0.013*[#  14]+0.013*[#  18]+0.006*[#  12]+0.006*[#  16]+0.006*[#   8]
          +0.005*[#  11]+0.005*[#  15]+0.001*[#  13]+0.001*[#  17]
    |psi|^2 = 0.990
==== e(  13) =    -3.72540 eV ==== 
     psi = 0.210*[#   5]+0.203*[#  14]+0.203*[#  18]+0.140*[#  12]+0.140*[#  16]
          +0.038*[#   7]+0.012*[#   9]+0.011*[#  13]+0.011*[#  17]+0.009*[#   8]
          +0.002*[#  11]+0.002*[#  15]+0.001*[#   6]
    |psi|^2 = 0.983
==== e(  14) =    -3.57410 eV ==== 
     psi = 0.421*[#   7]+0.107*[#  12]+0.107*[#  16]+0.084*[#   5]+0.083*[#   6]
          +0.066*[#  14]+0.066*[#  18]+0.023*[#  13]+0.023*[#  17]+0.007*[#   9]
          +0.002*[#  10]+0.001*[#   8]
    |psi|^2 = 0.992
==== e(  15) =    -3.36900 eV ==== 
     psi = 0.196*[#  13]+0.196*[#  17]+0.184*[#   5]+0.161*[#   6]+0.113*[#  12]
          +0.113*[#  16]+0.009*[#   7]+0.005*[#  14]+0.005*[#  18]+0.002*[#   8]
          
    |psi|^2 = 0.986
==== e(  16) =    -2.89268 eV ==== 
     psi = 0.138*[#  12]+0.138*[#  16]+0.134*[#   9]+0.125*[#  14]+0.125*[#  18]
          +0.087*[#   8]+0.078*[#  13]+0.078*[#  17]+0.027*[#   5]+0.024*[#   7]
          +0.023*[#   6]+0.006*[#  11]+0.006*[#  15]
    |psi|^2 = 0.992
==== e(  17) =    -2.29331 eV ==== 
     psi = 0.377*[#  13]+0.377*[#  17]+0.123*[#   8]+0.087*[#   9]+0.011*[#   6]
          +0.005*[#  12]+0.005*[#  16]+0.003*[#  14]+0.003*[#  18]
    |psi|^2 = 0.993
==== e(  18) =     2.33760 eV ==== 
     psi = 0.324*[#  10]+0.054*[#  14]+0.054*[#  18]+0.026*[#  12]+0.026*[#  16]
          +0.020*[#  11]+0.020*[#  15]+0.006*[#  13]+0.006*[#  17]+0.002*[#   5]
          +0.001*[#   7]+0.001*[#   6]
    |psi|^2 = 0.543
==== e(  19) =     2.87246 eV ==== 
     psi = 0.093*[#  10]+0.010*[#  12]+0.010*[#  16]+0.007*[#  11]+0.007*[#  15]
          +0.004*[#  14]+0.004*[#  18]
    |psi|^2 = 0.138
==== e(  20) =     3.11806 eV ==== 
     psi = 0.002*[#   5]
    |psi|^2 = 0.006

 k =   0.0625000000  0.3247595264  0.0000000000
==== e(   1) =  -106.00213 eV ==== 
     psi = 0.995*[#   1]+0.001*[#  14]+0.001*[#  18]
    |psi|^2 = 1.000
==== e(   2) =   -66.47572 eV ==== 
     psi = 0.999*[#   2]
    |psi|^2 = 1.000
==== e(   3) =   -66.42263 eV ==== 
     psi = 0.978*[#   4]+0.021*[#   3]
    |psi|^2 = 1.000
==== e(   4) =   -66.42242 eV ==== 
     psi = 0.978*[#   3]+0.021*[#   4]
    |psi|^2 = 1.000
==== e(   5) =   -15.23446 eV ==== 
     psi = 0.417*[#  11]+0.417*[#  15]+0.137*[#  10]+0.008*[#  14]+0.008*[#  18]
          +0.005*[#  12]+0.005*[#  16]
    |psi|^2 = 0.999
==== e(   6) =   -14.58658 eV ==== 
     psi = 0.487*[#  11]+0.487*[#  15]+0.009*[#   8]+0.005*[#   9]+0.004*[#  14]
          +0.004*[#  18]
    |psi|^2 = 0.998
==== e(   7) =    -6.61941 eV ==== 
     psi = 0.176*[#  12]+0.176*[#  16]+0.163*[#  14]+0.163*[#  18]+0.156*[#  10]
          +0.045*[#   5]+0.042*[#  11]+0.042*[#  15]+0.012*[#   7]+0.003*[#   9]
          +0.003*[#   6]+0.003*[#  13]+0.003*[#  17]+0.003*[#   8]+0.002*[#   1]
          
    |psi|^2 = 0.992
==== e(   8) =    -6.35078 eV ==== 
     psi = 0.234*[#  14]+0.234*[#  18]+0.112*[#   8]+0.107*[#   9]+0.096*[#  12]
          +0.096*[#  16]+0.085*[#   5]+0.007*[#   7]+0.005*[#  10]+0.004*[#  13]
          +0.004*[#  17]+0.003*[#  11]+0.003*[#  15]
    |psi|^2 = 0.989
==== e(   9) =    -5.80640 eV ==== 
     psi = 0.453*[#   9]+0.190*[#   8]+0.105*[#  13]+0.105*[#  17]+0.035*[#   6]
          +0.028*[#  12]+0.028*[#  16]+0.017*[#  14]+0.017*[#  18]+0.015*[#   7]
          
    |psi|^2 = 0.996
==== e(  10) =    -5.62087 eV ==== 
     psi = 0.239*[#   8]+0.143*[#  14]+0.143*[#  18]+0.127*[#  12]+0.127*[#  16]
          +0.122*[#   7]+0.024*[#  13]+0.024*[#  17]+0.015*[#   9]+0.007*[#   6]
          +0.007*[#  10]+0.003*[#   5]+0.002*[#  11]+0.002*[#  15]
    |psi|^2 = 0.986
==== e(  11) =    -4.69741 eV ==== 
     psi = 0.203*[#  13]+0.203*[#  17]+0.191*[#   6]+0.186*[#   8]+0.091*[#   5]
[...]
          +0.003*[#  14]+0.003*[#  18]
    |psi|^2 = 0.992
==== e(  15) =    -2.98053 eV ==== 
     psi = 0.394*[#   9]+0.214*[#   8]+0.177*[#   7]+0.048*[#  13]+0.048*[#  17]
          +0.030*[#  12]+0.030*[#  16]+0.014*[#  14]+0.014*[#  18]+0.014*[#   6]
          +0.003*[#  10]+0.002*[#   5]
    |psi|^2 = 0.990
==== e(  16) =    -1.43776 eV ==== 
     psi = 0.430*[#   5]+0.180*[#   6]+0.114*[#  12]+0.114*[#  16]+0.033*[#  14]
          +0.033*[#  18]+0.023*[#  13]+0.023*[#  17]+0.016*[#   7]+0.007*[#  11]
          +0.007*[#  15]+0.003*[#   8]+0.002*[#   9]+0.001*[#  10]
    |psi|^2 = 0.986
==== e(  17) =    -1.15147 eV ==== 
     psi = 0.352*[#   6]+0.203*[#  13]+0.203*[#  17]+0.176*[#   5]+0.021*[#  12]
          +0.021*[#  16]+0.008*[#   9]+0.002*[#   8]+0.002*[#  11]+0.002*[#  15]
          
    |psi|^2 = 0.991
==== e(  18) =     1.66747 eV ==== 
     psi = 0.411*[#  10]+0.078*[#  14]+0.078*[#  18]+0.019*[#  12]+0.019*[#  16]
          +0.011*[#  11]+0.011*[#  15]+0.009*[#   8]+0.007*[#  13]+0.007*[#  17]
          +0.002*[#   6]+0.002*[#   1]
    |psi|^2 = 0.656
==== e(  19) =     3.33768 eV ==== 
     psi = 0.072*[#  10]+0.009*[#   8]+0.008*[#  12]+0.008*[#  16]+0.004*[#  14]
          +0.004*[#  18]+0.003*[#  11]+0.003*[#  15]+0.002*[#  13]+0.002*[#  17]
          
    |psi|^2 = 0.115
==== e(  20) =     3.76014 eV ==== 
     psi = 0.018*[#  10]+0.003*[#  14]+0.003*[#  18]+0.002*[#   5]+0.002*[#  12]
          +0.002*[#  16]+0.001*[#   6]+0.001*[#  13]+0.001*[#  17]+0.001*[#   7]
          
    |psi|^2 = 0.039

 k =  -0.0625000000 -0.3247595264  0.0000000000
==== e(   1) =  -104.63143 eV ==== 
     psi = 0.995*[#   1]+0.001*[#  14]+0.001*[#  18]
    |psi|^2 = 1.000
==== e(   2) =   -64.96621 eV ==== 
     psi = 0.999*[#   2]
    |psi|^2 = 1.000
==== e(   3) =   -64.95557 eV ==== 
     psi = 0.978*[#   4]+0.021*[#   3]
    |psi|^2 = 1.000
==== e(   4) =   -64.95533 eV ==== 
     psi = 0.978*[#   3]+0.021*[#   4]
    |psi|^2 = 1.000
==== e(   5) =   -14.99941 eV ==== 
     psi = 0.414*[#  11]+0.414*[#  15]+0.140*[#  10]+0.009*[#  14]+0.009*[#  18]
          +0.005*[#  12]+0.005*[#  16]
    |psi|^2 = 0.999
==== e(   6) =   -14.32129 eV ==== 
     psi = 0.488*[#  11]+0.488*[#  15]+0.013*[#   5]+0.004*[#  14]+0.004*[#  18]
          
    |psi|^2 = 0.998
==== e(   7) =    -6.42027 eV ==== 
     psi = 0.185*[#  12]+0.185*[#  16]+0.167*[#  10]+0.157*[#  14]+0.157*[#  18]
          +0.047*[#  11]+0.047*[#  15]+0.031*[#   8]+0.009*[#   7]+0.002*[#  13]
          +0.002*[#  17]+0.002*[#   1]
    |psi|^2 = 0.992
==== e(   8) =    -5.90826 eV ==== 
     psi = 0.293*[#  14]+0.293*[#  18]+0.128*[#  12]+0.128*[#  16]+0.056*[#   5]
          +0.038*[#   8]+0.016*[#   7]+0.010*[#   9]+0.005*[#  13]+0.005*[#  17]
          +0.003*[#  11]+0.003*[#  15]+0.001*[#   6]
    |psi|^2 = 0.980
==== e(   9) =    -5.08630 eV ==== 
     psi = 0.214*[#  14]+0.214*[#  18]+0.140*[#  12]+0.140*[#  16]+0.117*[#   7]
          +0.092*[#   5]+0.019*[#  13]+0.019*[#  17]+0.011*[#   6]+0.011*[#  10]
          +0.004*[#   9]+0.002*[#  11]+0.002*[#  15]+0.002*[#   8]
    |psi|^2 = 0.985
==== e(  10) =    -4.57795 eV ==== 
     psi = 0.343*[#   6]+0.294*[#  13]+0.294*[#  17]+0.017*[#   9]+0.013*[#  14]
          +0.013*[#  18]+0.004*[#   5]+0.002*[#  10]+0.002*[#  12]+0.002*[#  16]
          
    |psi|^2 = 0.985
==== e(  11) =    -4.05193 eV ==== 
     psi = 0.267*[#  13]+0.267*[#  17]+0.261*[#   9]+0.076*[#   5]+0.065*[#   6]
          +0.017*[#   8]+0.011*[#  14]+0.011*[#  18]+0.003*[#   7]+0.002*[#  10]
          
    |psi|^2 = 0.980
==== e(  12) =    -3.62257 eV ==== 
     psi = 0.264*[#  12]+0.264*[#  16]+0.138*[#   8]+0.110*[#  14]+0.110*[#  18]
          +0.052*[#   5]+0.016*[#   7]+0.010*[#  13]+0.010*[#  17]+0.005*[#  10]
          +0.001*[#  11]+0.001*[#  15]+0.001*[#   6]
    |psi|^2 = 0.984
==== e(  13) =    -3.32212 eV ==== 
     psi = 0.475*[#   8]+0.206*[#   7]+0.093*[#   9]+0.067*[#   5]+0.055*[#  12]
          +0.055*[#  16]+0.012*[#  10]+0.005*[#   6]+0.005*[#  14]+0.005*[#  18]
          +0.002*[#  11]+0.002*[#  15]
    |psi|^2 = 0.984
==== e(  14) =    -2.96142 eV ==== 
     psi = 0.559*[#   7]+0.137*[#   8]+0.122*[#   9]+0.033*[#  12]+0.033*[#  16]
          +0.031*[#  13]+0.031*[#  17]+0.014*[#  14]+0.014*[#  18]+0.012*[#   6]
          +0.002*[#   5]+0.002*[#  10]
    |psi|^2 = 0.991
==== e(  15) =    -2.89831 eV ==== 
     psi = 0.482*[#   9]+0.134*[#   8]+0.108*[#  13]+0.108*[#  17]+0.052*[#   7]
          +0.026*[#  12]+0.026*[#  16]+0.017*[#  14]+0.017*[#  18]+0.014*[#   6]
          +0.002*[#   5]
    |psi|^2 = 0.987
==== e(  16) =    -1.54347 eV ==== 
     psi = 0.518*[#   5]+0.117*[#   6]+0.098*[#  12]+0.098*[#  16]+0.048*[#  14]
          +0.048*[#  18]+0.013*[#  13]+0.013*[#  17]+0.011*[#   7]+0.008*[#  11]
          +0.008*[#  15]+0.005*[#   8]
    |psi|^2 = 0.985
==== e(  17) =    -1.15703 eV ==== 
     psi = 0.415*[#   6]+0.221*[#  13]+0.221*[#  17]+0.106*[#   5]+0.009*[#  12]
          +0.009*[#  16]+0.002*[#   9]+0.001*[#  11]+0.001*[#  15]
    |psi|^2 = 0.988
==== e(  18) =     2.06914 eV ==== 
     psi = 0.328*[#  10]+0.066*[#  14]+0.066*[#  18]+0.020*[#  12]+0.020*[#  16]
          +0.014*[#  11]+0.014*[#  15]+0.007*[#  13]+0.007*[#  17]+0.005*[#   8]
          +0.002*[#   6]+0.001*[#   1]
    |psi|^2 = 0.551
==== e(  19) =     3.23491 eV ==== 
     psi = 0.102*[#  10]+0.010*[#  12]+0.010*[#  16]+0.007*[#   8]+0.006*[#  14]
          +0.006*[#  18]+0.006*[#  11]+0.006*[#  15]+0.002*[#  13]+0.002*[#  17]
          
    |psi|^2 = 0.156
==== e(  20) =     3.50336 eV ==== 
     psi = 0.013*[#  10]+0.002*[#   5]+0.002*[#  14]+0.002*[#  18]+0.001*[#  12]
          +0.001*[#  16]+0.001*[#   8]
    |psi|^2 = 0.027

 k =  -0.0625000000 -0.2525907428  0.0000000000
==== e(   1) =  -104.63143 eV ==== 
     psi = 0.995*[#   1]+0.001*[#  12]+0.001*[#  16]
    |psi|^2 = 1.000
==== e(   2) =   -64.96623 eV ==== 
     psi = 0.999*[#   2]
    |psi|^2 = 1.000
==== e(   3) =   -64.95547 eV ==== 
     psi = 0.955*[#   4]+0.045*[#   3]
    |psi|^2 = 1.000
==== e(   4) =   -64.95530 eV ==== 
     psi = 0.955*[#   3]+0.045*[#   4]
    |psi|^2 = 1.000
==== e(   5) =   -15.19783 eV ==== 
     psi = 0.394*[#  11]+0.394*[#  15]+0.184*[#  10]+0.007*[#  14]+0.007*[#  18]
          +0.005*[#  12]+0.005*[#  16]
    |psi|^2 = 0.999
==== e(   6) =   -14.40513 eV ==== 
     psi = 0.488*[#  11]+0.488*[#  15]+0.009*[#   5]+0.004*[#  14]+0.004*[#  18]
          +0.001*[#  12]+0.001*[#  16]
    |psi|^2 = 0.998
==== e(   7) =    -6.35487 eV ==== 
     psi = 0.328*[#  12]+0.328*[#  16]+0.122*[#  10]+0.046*[#  11]+0.046*[#  15]
          +0.044*[#   7]+0.034*[#  14]+0.034*[#  18]+0.006*[#   8]+0.002*[#   1]
          +0.002*[#  13]+0.002*[#  17]
    |psi|^2 = 0.994
==== e(   8) =    -5.55160 eV ==== 
     psi = 0.297*[#  14]+0.297*[#  18]+0.118*[#   5]+0.075*[#   8]+0.072*[#  12]
          +0.072*[#  16]+0.015*[#   9]+0.010*[#  13]+0.010*[#  17]+0.006*[#   7]
          +0.003*[#  10]+0.002*[#  11]+0.002*[#  15]
    |psi|^2 = 0.980
==== e(   9) =    -4.77443 eV ==== 
     psi = 0.259*[#  14]+0.259*[#  18]+0.114*[#   7]+0.079*[#   5]+0.049*[#  12]
          +0.049*[#  16]+0.041*[#  13]+0.041*[#  17]+0.035*[#  10]+0.021*[#   8]
          +0.013*[#   9]+0.010*[#  11]+0.010*[#  15]+0.002*[#   6]
    |psi|^2 = 0.982
==== e(  10) =    -4.56458 eV ==== 
     psi = 0.383*[#   6]+0.252*[#  13]+0.252*[#  17]+0.035*[#   9]+0.030*[#  14]
          +0.030*[#  18]+0.002*[#   7]+0.001*[#   8]
    |psi|^2 = 0.987
==== e(  11) =    -3.86652 eV ==== 
     psi = 0.339*[#   9]+0.213*[#  13]+0.213*[#  17]+0.100*[#   5]+0.059*[#   6]
          +0.031*[#   8]+0.010*[#  14]+0.010*[#  18]+0.002*[#   7]+0.001*[#  12]
          +0.001*[#  16]
    |psi|^2 = 0.981
==== e(  12) =    -3.40297 eV ==== 
     psi = 0.230*[#  12]+0.230*[#  16]+0.228*[#   8]+0.097*[#  14]+0.097*[#  18]
          +0.066*[#   7]+0.012*[#   9]+0.007*[#  10]+0.005*[#  13]+0.005*[#  17]
          +0.002*[#   6]+0.001*[#   5]
    |psi|^2 = 0.982
==== e(  13) =    -3.31143 eV ==== 
     psi = 0.350*[#   8]+0.168*[#   7]+0.131*[#  12]+0.131*[#  16]+0.088*[#   9]
          +0.041*[#   5]+0.020*[#  14]+0.020*[#  18]+0.011*[#   6]+0.009*[#  10]
          +0.005*[#  13]+0.005*[#  17]+0.002*[#  11]+0.002*[#  15]
    |psi|^2 = 0.984
==== e(  14) =    -2.89280 eV ==== 
     psi = 0.579*[#   7]+0.196*[#   8]+0.046*[#  14]+0.046*[#  18]+0.042*[#  12]
          +0.042*[#  16]+0.017*[#   9]+0.009*[#  13]+0.009*[#  17]+0.002*[#   5]
          
    |psi|^2 = 0.992
==== e(  15) =    -2.81193 eV ==== 
     psi = 0.470*[#   9]+0.192*[#  13]+0.192*[#  17]+0.063*[#   8]+0.014*[#  14]
          +0.014*[#  18]+0.013*[#  12]+0.013*[#  16]+0.007*[#   5]+0.006*[#   6]
          
    |psi|^2 = 0.984
==== e(  16) =    -1.57407 eV ==== 
     psi = 0.580*[#   5]+0.086*[#  14]+0.086*[#  18]+0.058*[#  12]+0.058*[#  16]
          +0.056*[#   6]+0.014*[#  13]+0.014*[#  17]+0.009*[#  11]+0.009*[#  15]
          +0.008*[#   8]+0.006*[#   7]
    |psi|^2 = 0.984
==== e(  17) =    -1.14250 eV ==== 
     psi = 0.464*[#   6]+0.231*[#  13]+0.231*[#  17]+0.047*[#   5]+0.003*[#  12]
          +0.003*[#  16]+0.003*[#  14]+0.003*[#  18]
    |psi|^2 = 0.986
==== e(  18) =     2.54660 eV ==== 
     psi = 0.287*[#  10]+0.055*[#  14]+0.055*[#  18]+0.023*[#  12]+0.023*[#  16]
          +0.018*[#  11]+0.018*[#  15]+0.006*[#  13]+0.006*[#  17]+0.003*[#   8]
          +0.002*[#   7]+0.001*[#   6]
    |psi|^2 = 0.500
==== e(  19) =     2.97613 eV ==== 
     psi = 0.107*[#  10]+0.011*[#  12]+0.011*[#  16]+0.008*[#  11]+0.008*[#  15]
          +0.006*[#  14]+0.006*[#  18]+0.002*[#   8]+0.001*[#  13]+0.001*[#  17]
          
    |psi|^2 = 0.163
==== e(  20) =     3.22592 eV ==== 
     psi = 0.003*[#   8]+0.002*[#   5]+0.001*[#  10]
    |psi|^2 = 0.011

 k =  -0.0625000000 -0.1804219591  0.0000000000
==== e(   1) =  -104.63144 eV ==== 
     psi = 0.995*[#   1]+0.002*[#  12]+0.002*[#  16]
    |psi|^2 = 1.000
==== e(   2) =   -64.96624 eV ==== 
     psi = 0.999*[#   2]
    |psi|^2 = 1.000
==== e(   3) =   -64.95537 eV ==== 
     psi = 0.901*[#   4]+0.098*[#   3]
    |psi|^2 = 1.000
==== e(   4) =   -64.95527 eV ==== 
     psi = 0.901*[#   3]+0.098*[#   4]
    |psi|^2 = 1.000
==== e(   5) =   -15.36273 eV ==== 
     psi = 0.379*[#  11]+0.379*[#  15]+0.220*[#  10]+0.005*[#  12]+0.005*[#  16]
          +0.004*[#  14]+0.004*[#  18]
    |psi|^2 = 0.999
==== e(   6) =   -14.48542 eV ==== 
     psi = 0.490*[#  11]+0.490*[#  15]+0.005*[#   5]+0.003*[#  14]+0.003*[#  18]
          +0.002*[#  12]+0.002*[#  16]
    |psi|^2 = 0.997
==== e(   7) =    -6.45313 eV ==== 
     psi = 0.367*[#  12]+0.367*[#  16]+0.095*[#  10]+0.064*[#   7]+0.041*[#  11]
          +0.041*[#  15]+0.007*[#  14]+0.007*[#  18]+0.002*[#   1]
    |psi|^2 = 0.994
==== e(   8) =    -5.17695 eV ==== 
     psi = 0.243*[#  14]+0.243*[#  18]+0.210*[#   5]+0.078*[#   8]+0.065*[#  12]
          +0.065*[#  16]+0.025*[#   9]+0.025*[#  13]+0.025*[#  17]+0.002*[#  11]
          +0.002*[#  15]
    |psi|^2 = 0.984
==== e(   9) =    -4.57115 eV ==== 
     psi = 0.349*[#   6]+0.241*[#  13]+0.241*[#  17]+0.069*[#   9]+0.028*[#  14]
          +0.028*[#  18]+0.024*[#   8]+0.003*[#   7]+0.002*[#  10]
    |psi|^2 = 0.985
==== e(  10) =    -4.23186 eV ==== 
     psi = 0.265*[#  14]+0.265*[#  18]+0.138*[#   7]+0.062*[#   6]+0.057*[#   8]
          +0.039*[#  10]+0.039*[#   5]+0.028*[#  13]+0.028*[#  17]+0.014*[#  11]
          +0.014*[#  15]+0.012*[#   9]+0.010*[#  12]+0.010*[#  16]
    |psi|^2 = 0.983
==== e(  11) =    -3.67696 eV ==== 
     psi = 0.391*[#   9]+0.147*[#  13]+0.147*[#  17]+0.120*[#   5]+0.097*[#   8]
          +0.045*[#   6]+0.014*[#  14]+0.014*[#  18]+0.003*[#  12]+0.003*[#  16]
          
    |psi|^2 = 0.982
==== e(  12) =    -3.31603 eV ==== 
     psi = 0.440*[#   8]+0.263*[#   7]+0.136*[#   9]+0.029*[#   6]+0.021*[#  12]
          +0.021*[#  16]+0.019*[#   5]+0.016*[#  14]+0.016*[#  18]+0.015*[#  10]
          +0.003*[#  11]+0.003*[#  15]
    |psi|^2 = 0.985
==== e(  13) =    -3.30198 eV ==== 
     psi = 0.390*[#  12]+0.390*[#  16]+0.065*[#  14]+0.065*[#  18]+0.025*[#   8]
          +0.011*[#  13]+0.011*[#  17]+0.011*[#   7]+0.010*[#   9]+0.003*[#   6]
          
    |psi|^2 = 0.984
==== e(  14) =    -2.83734 eV ==== 
     psi = 0.501*[#   7]+0.168*[#   8]+0.094*[#  14]+0.094*[#  18]+0.039*[#  12]
          +0.039*[#  16]+0.028*[#   9]+0.012*[#  13]+0.012*[#  17]
    |psi|^2 = 0.990
==== e(  15) =    -2.73040 eV ==== 
     psi = 0.309*[#   9]+0.256*[#  13]+0.256*[#  17]+0.078*[#   8]+0.034*[#  14]
          +0.034*[#  18]+0.008*[#   5]+0.002*[#  12]+0.002*[#  16]+0.001*[#   7]
          
    |psi|^2 = 0.982
==== e(  16) =    -1.45857 eV ==== 
     psi = 0.578*[#   5]+0.136*[#  14]+0.136*[#  18]+0.028*[#  13]+0.028*[#  17]
          +0.020*[#  12]+0.020*[#  16]+0.013*[#   8]+0.007*[#  11]+0.007*[#  15]
          +0.005*[#   6]+0.001*[#   7]
    |psi|^2 = 0.981
==== e(  17) =    -1.08725 eV ==== 
     psi = 0.489*[#   6]+0.223*[#  13]+0.223*[#  17]+0.016*[#  14]+0.016*[#  18]
          +0.007*[#   9]+0.004*[#   5]+0.002*[#   8]+0.001*[#  12]+0.001*[#  16]
          
    |psi|^2 = 0.986
==== e(  18) =     2.60624 eV ==== 
     psi = 0.255*[#  10]+0.028*[#  12]+0.028*[#  16]+0.024*[#  11]+0.024*[#  15]
          +0.020*[#  14]+0.020*[#  18]+0.003*[#  13]+0.003*[#  17]
    |psi|^2 = 0.406
==== e(  19) =     2.98655 eV ==== 
     psi = 0.036*[#  10]+0.009*[#  14]+0.009*[#  18]+0.004*[#  12]+0.004*[#  16]
          +0.003*[#  11]+0.003*[#  15]
    |psi|^2 = 0.072
==== e(  20) =     3.09020 eV ==== 
     psi = 0.120*[#  10]+0.020*[#  14]+0.020*[#  18]+0.012*[#  12]+0.012*[#  16]
          +0.010*[#  11]+0.010*[#  15]+0.005*[#  13]+0.005*[#  17]+0.003*[#   7]
          +0.002*[#   8]
    |psi|^2 = 0.222

 k =  -0.0625000000 -0.1082531755  0.0000000000
==== e(   1) =  -104.63144 eV ==== 
     psi = 0.995*[#   1]+0.002*[#  12]+0.002*[#  16]
    |psi|^2 = 1.000
==== e(   2) =   -64.96626 eV ==== 
     psi = 0.999*[#   2]
    |psi|^2 = 1.000
==== e(   3) =   -64.95530 eV ==== 
     psi = 0.750*[#   4]+0.250*[#   3]
    |psi|^2 = 1.000
==== e(   4) =   -64.95525 eV ==== 
     psi = 0.750*[#   3]+0.250*[#   4]
    |psi|^2 = 1.000
==== e(   5) =   -15.47985 eV ==== 
     psi = 0.369*[#  11]+0.369*[#  15]+0.246*[#  10]+0.005*[#  12]+0.005*[#  16]
          +0.002*[#  14]+0.002*[#  18]
    |psi|^2 = 1.000
==== e(   6) =   -14.54711 eV ==== 
     psi = 0.493*[#  11]+0.493*[#  15]+0.002*[#  12]+0.002*[#  16]+0.002*[#   5]
          +0.002*[#  14]+0.002*[#  18]
    |psi|^2 = 0.997
==== e(   7) =    -6.55524 eV ==== 
     psi = 0.377*[#  12]+0.377*[#  16]+0.083*[#  10]+0.073*[#   7]+0.040*[#  11]
          +0.040*[#  15]+0.002*[#   1]+0.001*[#  14]+0.001*[#  18]
    |psi|^2 = 0.994
==== e(   8) =    -4.87511 eV ==== 
     psi = 0.272*[#   5]+0.180*[#  14]+0.180*[#  18]+0.064*[#   8]+0.060*[#  13]
          +0.060*[#  17]+0.051*[#   9]+0.050*[#  12]+0.050*[#  16]+0.016*[#   6]
          
    |psi|^2 = 0.987
==== e(   9) =    -4.56754 eV ==== 
     psi = 0.354*[#   6]+0.186*[#  13]+0.186*[#  17]+0.065*[#   9]+0.062*[#  14]
          +0.062*[#  18]+0.051*[#   8]+0.021*[#   5]
    |psi|^2 = 0.987
==== e(  10) =    -3.71405 eV ==== 
     psi = 0.186*[#   7]+0.166*[#  14]+0.166*[#  18]+0.122*[#   9]+0.097*[#   8]
          +0.080*[#   6]+0.055*[#  13]+0.055*[#  17]+0.028*[#  10]+0.010*[#  11]
          +0.010*[#  15]+0.005*[#   5]
    |psi|^2 = 0.982
==== e(  11) =    -3.50995 eV ==== 
     psi = 0.352*[#   8]+0.280*[#   9]+0.134*[#   5]+0.065*[#  13]+0.065*[#  17]
          +0.022*[#  14]+0.022*[#  18]+0.018*[#  12]+0.018*[#  16]+0.008*[#   6]
          
    |psi|^2 = 0.983
==== e(  12) =    -3.37452 eV ==== 
     psi = 0.422*[#  12]+0.422*[#  16]+0.035*[#  14]+0.035*[#  18]+0.033*[#   5]
          +0.016*[#  13]+0.016*[#  17]+0.002*[#   6]+0.002*[#   8]+0.002*[#   9]
          +0.001*[#  11]+0.001*[#  15]
    |psi|^2 = 0.988
==== e(  13) =    -3.28968 eV ==== 
     psi = 0.376*[#   7]+0.267*[#   9]+0.213*[#   8]+0.053*[#   6]+0.018*[#  10]
          +0.009*[#  14]+0.009*[#  18]+0.007*[#  12]+0.007*[#  16]+0.007*[#  13]
          +0.007*[#  17]+0.004*[#  11]+0.004*[#  15]+0.003*[#   5]
    |psi|^2 = 0.986
==== e(  14) =    -2.77647 eV ==== 
     psi = 0.346*[#   7]+0.154*[#  14]+0.154*[#  18]+0.082*[#   9]+0.065*[#   8]
          +0.060*[#  13]+0.060*[#  17]+0.031*[#  12]+0.031*[#  16]+0.001*[#  10]
          +0.001*[#  11]+0.001*[#  15]
    |psi|^2 = 0.988
==== e(  15) =    -2.66418 eV ==== 
     psi = 0.277*[#  13]+0.277*[#  17]+0.116*[#   8]+0.109*[#  14]+0.109*[#  18]
          +0.092*[#   9]
    |psi|^2 = 0.981
==== e(  16) =    -1.24166 eV ==== 
     psi = 0.484*[#   5]+0.140*[#  14]+0.140*[#  18]+0.072*[#  13]+0.072*[#  17]
          +0.029*[#   6]+0.015*[#   8]+0.012*[#   9]+0.004*[#  12]+0.004*[#  16]
          +0.004*[#  11]+0.004*[#  15]
    |psi|^2 = 0.980
==== e(  17) =    -0.98693 eV ==== 
     psi = 0.442*[#   6]+0.176*[#  13]+0.176*[#  17]+0.072*[#  14]+0.072*[#  18]
          +0.027*[#   5]+0.013*[#   9]+0.010*[#   8]
    |psi|^2 = 0.990
==== e(  18) =     2.27352 eV ==== 
     psi = 0.292*[#  10]+0.036*[#  12]+0.036*[#  16]+0.035*[#  11]+0.035*[#  15]
          +0.012*[#  14]+0.012*[#  18]+0.004*[#  13]+0.004*[#  17]
    |psi|^2 = 0.468
==== e(  19) =     2.87154 eV ==== 
 
    |psi|^2 = 0.002
==== e(  20) =     3.23422 eV ==== 
     psi = 0.005*[#  14]+0.005*[#  18]+0.003*[#   5]+0.002*[#  13]+0.002*[#  17]
          
    |psi|^2 = 0.022

Lowdin Charges: 

     Atom #   1: total charge =  17.3557, s =  2.6490, p =  5.9999, d =  8.7068, 
                 spin up      =   9.2841, s =  1.3200, 
                 spin up      =   9.2841, p =  2.9999, p1=  1.0000, p2=  1.0000, p3=  1.0000, 
                 spin up      =   9.2841, d =  4.9642, d1=  0.9908, d2=  0.9908, d3=  0.9923, d4=  0.9951, d5=  0.9951, 
                 spin down    =   8.0716, s =  1.3290, 
                 spin down    =   8.0716, p =  2.9999, p1=  1.0000, p2=  1.0000, p3=  1.0000, 
                 spin down    =   8.0716, d =  3.7427, d1=  0.4065, d2=  0.4065, d3=  0.9760, d4=  0.9769, d5=  0.9769, 
                 polarization =   1.2125, s = -0.0090, p =  0.0000, d =  1.2215, 
     Atom #   2: total charge =   7.2030, s =  1.9405, p =  5.2625, d =  0.0000, 
                 spin up      =   3.8021, s =  0.9743, 
                 spin up      =   3.8021, p =  2.8278, p1=  0.9564, p2=  0.9357, p3=  0.9357, 
                 spin up      =   3.8021, d =  0.0000, d1=  0.0000, d2=  0.0000, d3=  0.0000, d4=  0.0000, d5=  0.0000, 
                 spin down    =   3.4009, s =  0.9662, 
                 spin down    =   3.4009, p =  2.4348, p1=  0.8387, p2=  0.7980, p3=  0.7980, 
                 spin down    =   3.4009, d =  0.0000, d1=  0.0000, d2=  0.0000, d3=  0.0000, d4=  0.0000, d5=  0.0000, 
                 polarization =   0.4012, s =  0.0082, p =  0.3930, d =  0.0000, 
     Atom #   3: total charge =   7.2030, s =  1.9405, p =  5.2625, d =  0.0000, 
                 spin up      =   3.8021, s =  0.9743, 
                 spin up      =   3.8021, p =  2.8278, p1=  0.9564, p2=  0.9357, p3=  0.9357, 
                 spin up      =   3.8021, d =  0.0000, d1=  0.0000, d2=  0.0000, d3=  0.0000, d4=  0.0000, d5=  0.0000, 
                 spin down    =   3.4009, s =  0.9662, 
                 spin down    =   3.4009, p =  2.4348, p1=  0.8387, p2=  0.7980, p3=  0.7980, 
                 spin down    =   3.4009, d =  0.0000, d1=  0.0000, d2=  0.0000, d3=  0.0000, d4=  0.0000, d5=  0.0000, 
                 polarization =   0.4012, s =  0.0082, p =  0.3930, d =  0.0000, 
     Spilling Parameter:   0.0074
 
     PROJWFC      :     16.79s CPU     29.87s WALL

 
   This run was terminated on:  15:50:12  27Jun2023            

=------------------------------------------------------------------------------=
   JOB DONE.
=------------------------------------------------------------------------------=
