
     Program PWSCF v.7.1 starts on 26Jun2023 at 23:15:57 

     This program is part of the open-source Quantum ESPRESSO suite
     for quantum simulation of materials; please cite
         "P. Giannozzi et al., J. Phys.:Condens. Matter 21 395502 (2009);
         "P. Giannozzi et al., J. Phys.:Condens. Matter 29 465901 (2017);
         "P. Giannozzi et al., J. Chem. Phys. 152 154105 (2020);
          URL http://www.quantum-espresso.org", 
     in publications or presentations arising from this work. More details at
     http://www.quantum-espresso.org/quote

     Parallel version (MPI & OpenMP), running on      20 processor cores
     Number of MPI processes:                20
     Threads/MPI process:                     1

     MPI processes distributed on     1 nodes
     197619 MiB available memory on the printing compute node when the environment starts
 
     Reading input from input/scf.in

     Current dimensions of program PWSCF are:
     Max number of different atomic species (ntypx) = 10
     Max number of k-points (npk) =  40000
     Max angular momentum in pseudopotentials (lmaxx) =  4
     Message from routine setup:
     using ibrav=0 with symmetry is DISCOURAGED, use correct ibrav instead
 
     R & G space division:  proc/nbgrp/npool/nimage =      20
     Subspace diagonalization in iterative solution of the eigenvalue problem:
     a serial algorithm will be used

 
     Parallelization info
     --------------------
     sticks:   dense  smooth     PW     G-vecs:    dense   smooth      PW
     Min          93      89     24                20481    19267    2770
     Max          94      90     25                20502    19300    2795
     Sum        1879    1789    499               409943   385631   55807
 
     Using Slab Decomposition
 


     bravais-lattice index     =            0
     lattice parameter (alat)  =       7.3605  a.u.
     unit-cell volume          =    2170.2486 (a.u.)^3
     number of atoms/cell      =            3
     number of atomic types    =            2
     number of electrons       =        32.00
     number of Kohn-Sham states=           20
     kinetic-energy cutoff     =     120.0000  Ry
     charge density cutoff     =     500.0000  Ry
     scf convergence threshold =      1.0E-06
     mixing beta               =       0.4000
     number of iterations used =            8  plain     mixing
     Exchange-correlation= PBE
                           (   1   4   3   4   0   0   0)

     celldm(1)=   7.360481  celldm(2)=   0.000000  celldm(3)=   0.000000
     celldm(4)=   0.000000  celldm(5)=   0.000000  celldm(6)=   0.000000

     crystal axes: (cart. coord. in units of alat)
               a(1) = (   1.000000   0.000000   0.000000 )  
               a(2) = (  -0.500000   0.866025   0.000000 )  
               a(3) = (   0.000000   0.000000   6.284350 )  

     reciprocal axes: (cart. coord. in units 2 pi/alat)
               b(1) = (  1.000000  0.577350  0.000000 )  
               b(2) = (  0.000000  1.154701  0.000000 )  
               b(3) = (  0.000000  0.000000  0.159125 )  


     PseudoPot. # 1 for Ni read from file:
     ../../pseudo/Ni.upf
     MD5 check sum: 14a7e289c5fff9cacaba393040e62f02
     Pseudo is Norm-conserving + core correction, Zval = 18.0
     Generated using ONCVPSP code by D. R. Hamann
     Using radial grid of 1372 points,  6 beta functions with: 
                l(1) =   0
                l(2) =   0
                l(3) =   1
                l(4) =   1
                l(5) =   2
                l(6) =   2

     PseudoPot. # 2 for I  read from file:
     ../../pseudo/I.upf
     MD5 check sum: 301f7009ca0a2b18b0adf53dca02d42f
     Pseudo is Norm-conserving + core correction, Zval =  7.0
     Generated using ONCVPSP code by D. R. Hamann
     Using radial grid of 1210 points,  6 beta functions with: 
                l(1) =   0
                l(2) =   0
                l(3) =   1
                l(4) =   1
                l(5) =   2
                l(6) =   2

     atomic species   valence    mass     pseudopotential
        Ni            18.00    58.69340     Ni( 1.00)
        I              7.00   126.90447     I ( 1.00)

     Starting magnetic structure 
     atomic species   magnetization
        Ni           0.278
        I            0.100

     12 Sym. Ops., with inversion, found


                                    s                        frac. trans.

      isym =  1     identity                                     

 cryst.   s( 1) = (     1          0          0      )
                  (     0          1          0      )
                  (     0          0          1      )

 cart.    s( 1) = (  1.0000000  0.0000000  0.0000000 )
                  (  0.0000000  1.0000000  0.0000000 )
                  (  0.0000000  0.0000000  1.0000000 )


      isym =  2     180 deg rotation - cart. axis [1,0,0]        

 cryst.   s( 2) = (     1          0          0      )
                  (    -1         -1          0      )
                  (     0          0         -1      )

 cart.    s( 2) = (  1.0000000  0.0000000  0.0000000 )
                  (  0.0000000 -1.0000000  0.0000000 )
                  (  0.0000000  0.0000000 -1.0000000 )


      isym =  3     120 deg rotation - cryst. axis [0,0,1]       

 cryst.   s( 3) = (     0          1          0      )
                  (    -1         -1          0      )
                  (     0          0          1      )

 cart.    s( 3) = ( -0.5000000 -0.8660254  0.0000000 )
                  (  0.8660254 -0.5000000  0.0000000 )
                  (  0.0000000  0.0000000  1.0000000 )


      isym =  4     120 deg rotation - cryst. axis [0,0,-1]      

 cryst.   s( 4) = (    -1         -1          0      )
                  (     1          0          0      )
                  (     0          0          1      )

 cart.    s( 4) = ( -0.5000000  0.8660254  0.0000000 )
                  ( -0.8660254 -0.5000000  0.0000000 )
                  (  0.0000000  0.0000000  1.0000000 )


      isym =  5     180 deg rotation - cryst. axis [0,1,0]       

 cryst.   s( 5) = (    -1         -1          0      )
                  (     0          1          0      )
                  (     0          0         -1      )

 cart.    s( 5) = ( -0.5000000 -0.8660254  0.0000000 )
                  ( -0.8660254  0.5000000  0.0000000 )
                  (  0.0000000  0.0000000 -1.0000000 )


      isym =  6     180 deg rotation - cryst. axis [1,1,0]       

 cryst.   s( 6) = (     0          1          0      )
                  (     1          0          0      )
                  (     0          0         -1      )

 cart.    s( 6) = ( -0.5000000  0.8660254  0.0000000 )
                  (  0.8660254  0.5000000  0.0000000 )
                  (  0.0000000  0.0000000 -1.0000000 )


      isym =  7     inversion                                    

 cryst.   s( 7) = (    -1          0          0      )
                  (     0         -1          0      )
                  (     0          0         -1      )

 cart.    s( 7) = ( -1.0000000  0.0000000  0.0000000 )
                  (  0.0000000 -1.0000000  0.0000000 )
                  (  0.0000000  0.0000000 -1.0000000 )


      isym =  8     inv. 180 deg rotation - cart. axis [1,0,0]   

 cryst.   s( 8) = (    -1          0          0      )
                  (     1          1          0      )
                  (     0          0          1      )

 cart.    s( 8) = ( -1.0000000  0.0000000  0.0000000 )
                  (  0.0000000  1.0000000  0.0000000 )
                  (  0.0000000  0.0000000  1.0000000 )


      isym =  9     inv. 120 deg rotation - cryst. axis [0,0,1]  

 cryst.   s( 9) = (     0         -1          0      )
                  (     1          1          0      )
                  (     0          0         -1      )

 cart.    s( 9) = (  0.5000000  0.8660254  0.0000000 )
                  ( -0.8660254  0.5000000  0.0000000 )
                  (  0.0000000  0.0000000 -1.0000000 )


      isym = 10     inv. 120 deg rotation - cryst. axis [0,0,-1] 

 cryst.   s(10) = (     1          1          0      )
                  (    -1          0          0      )
                  (     0          0         -1      )

 cart.    s(10) = (  0.5000000 -0.8660254  0.0000000 )
                  (  0.8660254  0.5000000  0.0000000 )
                  (  0.0000000  0.0000000 -1.0000000 )


      isym = 11     inv. 180 deg rotation - cryst. axis [0,1,0]  

 cryst.   s(11) = (     1          1          0      )
                  (     0         -1          0      )
                  (     0          0          1      )

 cart.    s(11) = (  0.5000000  0.8660254  0.0000000 )
                  (  0.8660254 -0.5000000  0.0000000 )
                  (  0.0000000  0.0000000  1.0000000 )


      isym = 12     inv. 180 deg rotation - cryst. axis [1,1,0]  

 cryst.   s(12) = (     0         -1          0      )
                  (    -1          0          0      )
                  (     0          0          1      )

 cart.    s(12) = (  0.5000000 -0.8660254  0.0000000 )
                  ( -0.8660254 -0.5000000  0.0000000 )
                  (  0.0000000  0.0000000  1.0000000 )


   Cartesian axes

     site n.     atom                  positions (alat units)
         1           Ni  tau(   1) = (   0.0000000   0.0000000   3.1421749  )
         2           I   tau(   2) = (  -0.0000000   0.5773503   3.5289144  )
         3           I   tau(   3) = (   0.5000000   0.2886751   2.7554354  )

   Crystallographic axes

     site n.     atom                  positions (cryst. coord.)
         1           Ni  tau(   1) = (  0.0000000  0.0000000  0.5000000  )
         2           I   tau(   2) = (  0.3333333  0.6666667  0.5615401  )
         3           I   tau(   3) = (  0.6666667  0.3333333  0.4384599  )

     number of k points=    10  Marzari-Vanderbilt smearing, width (Ry)=  0.0015
                       cart. coord. in units 2pi/alat
        k(    1) = (   0.0000000   0.0000000   0.0000000), wk =   0.0156250
        k(    2) = (   0.0000000   0.1443376   0.0000000), wk =   0.0937500
        k(    3) = (   0.0000000   0.2886751   0.0000000), wk =   0.0937500
        k(    4) = (   0.0000000   0.4330127   0.0000000), wk =   0.0937500
        k(    5) = (   0.0000000  -0.5773503   0.0000000), wk =   0.0468750
        k(    6) = (   0.1250000   0.2165064   0.0000000), wk =   0.0937500
        k(    7) = (   0.1250000   0.3608439   0.0000000), wk =   0.1875000
        k(    8) = (   0.1250000   0.5051815   0.0000000), wk =   0.1875000
        k(    9) = (   0.2500000   0.4330127   0.0000000), wk =   0.0937500
        k(   10) = (   0.2500000   0.5773503   0.0000000), wk =   0.0937500

                       cryst. coord.
        k(    1) = (   0.0000000   0.0000000   0.0000000), wk =   0.0156250
        k(    2) = (   0.0000000   0.1250000   0.0000000), wk =   0.0937500
        k(    3) = (   0.0000000   0.2500000   0.0000000), wk =   0.0937500
        k(    4) = (   0.0000000   0.3750000   0.0000000), wk =   0.0937500
        k(    5) = (   0.0000000  -0.5000000   0.0000000), wk =   0.0468750
        k(    6) = (   0.1250000   0.1250000   0.0000000), wk =   0.0937500
        k(    7) = (   0.1250000   0.2500000   0.0000000), wk =   0.1875000
        k(    8) = (   0.1250000   0.3750000   0.0000000), wk =   0.1875000
        k(    9) = (   0.2500000   0.2500000   0.0000000), wk =   0.0937500
        k(   10) = (   0.2500000   0.3750000   0.0000000), wk =   0.0937500

     Dense  grid:   409943 G-vectors     FFT dimensions: (  54,  54, 360)

     Smooth grid:   385631 G-vectors     FFT dimensions: (  54,  54, 324)

     Dynamical RAM for                 wfc:       0.73 MB

     Dynamical RAM for     wfc (w. buffer):      15.43 MB

     Dynamical RAM for           str. fact:       0.63 MB

     Dynamical RAM for           local pot:       0.00 MB

     Dynamical RAM for          nlocal pot:       1.98 MB

     Dynamical RAM for                qrad:       3.59 MB

     Dynamical RAM for          rho,v,vnew:       4.28 MB

     Dynamical RAM for               rhoin:       1.43 MB

     Dynamical RAM for            rho*nmix:      10.01 MB

     Dynamical RAM for           G-vectors:       1.32 MB

     Dynamical RAM for          h,s,v(r/c):       0.07 MB

     Dynamical RAM for          <psi|beta>:       0.02 MB

     Dynamical RAM for                 psi:       1.47 MB

     Dynamical RAM for                hpsi:       1.47 MB

     Dynamical RAM for      wfcinit/wfcrot:       1.48 MB

     Estimated static dynamical RAM per process >      32.00 MB

     Estimated max dynamical RAM per process >      45.03 MB

     Estimated total dynamical RAM >     900.68 MB
     Generating pointlists ...
     new r_m :   0.2867 (alat units)  2.1099 (a.u.) for type    1
     new r_m :   0.2867 (alat units)  2.1099 (a.u.) for type    2

     Initial potential from superposition of free atoms

     starting charge      31.9996, renormalised to      32.0000

     negative rho (up, down):  2.429E-06 1.391E-06
     Starting wfcs are   18 randomized atomic wfcs +    2 random wfcs

     total cpu time spent up to now is        2.5 secs

     Self-consistent Calculation

     iteration #  1     ecut=   120.00 Ry     beta= 0.40
     Davidson diagonalization with overlap

---- Real-time Memory Report at c_bands before calling an iterative solver
           131 MiB given to the printing process from OS
             0 MiB allocation reported by mallinfo(arena+hblkhd)
        195832 MiB available memory on the node where the printing process lives
------------------
     ethr =  1.00E-02,  avg # of iterations =  5.2

     negative rho (up, down):  7.897E-07 3.996E-07

     total cpu time spent up to now is        4.0 secs

     total energy              =    -387.12172891 Ry
     estimated scf accuracy    <       0.79484677 Ry

     total magnetization       =     2.00 Bohr mag/cell
     absolute magnetization    =     2.09 Bohr mag/cell

     iteration #  2     ecut=   120.00 Ry     beta= 0.40
     Davidson diagonalization with overlap

---- Real-time Memory Report at c_bands before calling an iterative solver
           152 MiB given to the printing process from OS
             0 MiB allocation reported by mallinfo(arena+hblkhd)
        194277 MiB available memory on the node where the printing process lives
------------------
     ethr =  2.48E-03,  avg # of iterations =  2.0

     negative rho (up, down):  6.015E-07 2.260E-07

     total cpu time spent up to now is        5.4 secs

     total energy              =    -387.15742100 Ry
     estimated scf accuracy    <       0.80572431 Ry

     total magnetization       =     2.00 Bohr mag/cell
     absolute magnetization    =     2.19 Bohr mag/cell

     iteration #  3     ecut=   120.00 Ry     beta= 0.40
     Davidson diagonalization with overlap

---- Real-time Memory Report at c_bands before calling an iterative solver
           165 MiB given to the printing process from OS
             0 MiB allocation reported by mallinfo(arena+hblkhd)
        193812 MiB available memory on the node where the printing process lives
------------------
     ethr =  2.48E-03,  avg # of iterations =  1.9

     negative rho (up, down):  1.131E-06 4.292E-07

     total cpu time spent up to now is        6.6 secs

     total energy              =    -387.32619561 Ry
     estimated scf accuracy    <       0.17534272 Ry

     total magnetization       =     2.00 Bohr mag/cell
     absolute magnetization    =     2.10 Bohr mag/cell

     iteration #  4     ecut=   120.00 Ry     beta= 0.40
     Davidson diagonalization with overlap

---- Real-time Memory Report at c_bands before calling an iterative solver
           167 MiB given to the printing process from OS
             0 MiB allocation reported by mallinfo(arena+hblkhd)
        193809 MiB available memory on the node where the printing process lives
------------------
     ethr =  5.48E-04,  avg # of iterations =  1.9

     negative rho (up, down):  6.261E-07 2.331E-07

     total cpu time spent up to now is        7.9 secs

     total energy              =    -387.33338143 Ry
     estimated scf accuracy    <       0.00496246 Ry

     total magnetization       =     2.00 Bohr mag/cell
     absolute magnetization    =     2.10 Bohr mag/cell

     iteration #  5     ecut=   120.00 Ry     beta= 0.40
     Davidson diagonalization with overlap

---- Real-time Memory Report at c_bands before calling an iterative solver
           167 MiB given to the printing process from OS
             0 MiB allocation reported by mallinfo(arena+hblkhd)
        193418 MiB available memory on the node where the printing process lives
------------------
     c_bands:  1 eigenvalues not converged
     ethr =  1.55E-05,  avg # of iterations =  8.7

     negative rho (up, down):  3.722E-07 1.725E-07

     total cpu time spent up to now is        9.8 secs

     total energy              =    -387.33434901 Ry
     estimated scf accuracy    <       0.00044224 Ry

     total magnetization       =     2.00 Bohr mag/cell
     absolute magnetization    =     2.09 Bohr mag/cell

     iteration #  6     ecut=   120.00 Ry     beta= 0.40
     Davidson diagonalization with overlap

---- Real-time Memory Report at c_bands before calling an iterative solver
           169 MiB given to the printing process from OS
             0 MiB allocation reported by mallinfo(arena+hblkhd)
        193389 MiB available memory on the node where the printing process lives
------------------
     ethr =  1.38E-06,  avg # of iterations =  4.7

     negative rho (up, down):  1.805E-07 7.800E-08

     total cpu time spent up to now is       11.5 secs

     total energy              =    -387.33438767 Ry
     estimated scf accuracy    <       0.00032999 Ry

     total magnetization       =     2.00 Bohr mag/cell
     absolute magnetization    =     2.08 Bohr mag/cell

     iteration #  7     ecut=   120.00 Ry     beta= 0.40
     Davidson diagonalization with overlap

---- Real-time Memory Report at c_bands before calling an iterative solver
           171 MiB given to the printing process from OS
             0 MiB allocation reported by mallinfo(arena+hblkhd)
        192847 MiB available memory on the node where the printing process lives
------------------
     ethr =  1.03E-06,  avg # of iterations =  2.0

     negative rho (up, down):  1.095E-07 5.936E-08

     total cpu time spent up to now is       12.9 secs

     total energy              =    -387.33447515 Ry
     estimated scf accuracy    <       0.00029010 Ry

     total magnetization       =     2.00 Bohr mag/cell
     absolute magnetization    =     2.08 Bohr mag/cell

     iteration #  8     ecut=   120.00 Ry     beta= 0.40
     Davidson diagonalization with overlap

---- Real-time Memory Report at c_bands before calling an iterative solver
           171 MiB given to the printing process from OS
             0 MiB allocation reported by mallinfo(arena+hblkhd)
        192823 MiB available memory on the node where the printing process lives
------------------
     ethr =  9.07E-07,  avg # of iterations =  1.5

     negative rho (up, down):  6.735E-08 3.765E-08

     total cpu time spent up to now is       14.1 secs

     total energy              =    -387.33449972 Ry
     estimated scf accuracy    <       0.00000767 Ry

     total magnetization       =     2.00 Bohr mag/cell
     absolute magnetization    =     2.08 Bohr mag/cell

     iteration #  9     ecut=   120.00 Ry     beta= 0.40
     Davidson diagonalization with overlap

---- Real-time Memory Report at c_bands before calling an iterative solver
           172 MiB given to the printing process from OS
             0 MiB allocation reported by mallinfo(arena+hblkhd)
        192769 MiB available memory on the node where the printing process lives
------------------
     ethr =  2.40E-08,  avg # of iterations =  2.6

     negative rho (up, down):  3.797E-08 2.037E-08

     total cpu time spent up to now is       15.6 secs

     total energy              =    -387.33450140 Ry
     estimated scf accuracy    <       0.00000144 Ry

     total magnetization       =     2.00 Bohr mag/cell
     absolute magnetization    =     2.08 Bohr mag/cell

     iteration # 10     ecut=   120.00 Ry     beta= 0.40
     Davidson diagonalization with overlap

---- Real-time Memory Report at c_bands before calling an iterative solver
           174 MiB given to the printing process from OS
             0 MiB allocation reported by mallinfo(arena+hblkhd)
        192754 MiB available memory on the node where the printing process lives
------------------
     ethr =  4.49E-09,  avg # of iterations =  2.0
 
     Magnetic moment per site  (integrated on atomic sphere of radius R)
     atom   1 (R=0.287)  charge= 16.8825  magn=  1.2604
     atom   2 (R=0.287)  charge=  4.0503  magn=  0.2265
     atom   3 (R=0.287)  charge=  4.0503  magn=  0.2265

     total cpu time spent up to now is       17.0 secs

     End of self-consistent calculation

 ------ SPIN UP ------------


          k = 0.0000 0.0000 0.0000 ( 48107 PWs)   bands (ev):

  -105.9897 -66.4636 -66.4096 -66.4096 -15.7930 -14.8517  -6.8592  -5.8097
    -5.8097  -4.2761  -4.2761  -3.9111  -3.7901  -2.8792  -2.8792  -1.9810
    -1.9810   1.7683   2.5098   3.0551

     occupation numbers 
     1.0000   1.0000   1.0000   1.0000   1.0000   1.0000   1.0000   1.0000
     1.0000   1.0000   1.0000   1.0000   1.0000   1.0000   1.0000   1.0000
     1.0000   0.0000   0.0000   0.0000

          k = 0.0000 0.1443 0.0000 ( 48142 PWs)   bands (ev):

  -105.9897 -66.4636 -66.4097 -66.4096 -15.6737 -14.7873  -6.7400  -5.9551
    -5.7972  -4.5404  -4.3424  -4.0618  -3.6165  -3.3208  -3.0257  -2.5747
    -2.0682   2.2381   2.8207   2.9593

     occupation numbers 
     1.0000   1.0000   1.0000   1.0000   1.0000   1.0000   1.0000   1.0000
     1.0000   1.0000   1.0000   1.0000   1.0000   1.0000   1.0000   1.0000
     1.0000   0.0000   0.0000   0.0000

          k = 0.0000 0.2887 0.0000 ( 48148 PWs)   bands (ev):

  -105.9897 -66.4636 -66.4099 -66.4097 -15.3503 -14.6327  -6.5525  -6.2727
    -5.7729  -5.5128  -4.4680  -4.2032  -3.9006  -3.5950  -3.4155  -2.9549
    -2.1870   1.9591   2.9332   3.2258

     occupation numbers 
     1.0000   1.0000   1.0000   1.0000   1.0000   1.0000   1.0000   1.0000
     1.0000   1.0000   1.0000   1.0000   1.0000   1.0000   1.0000   1.0000
     1.0000   0.0000   0.0000   0.0000

          k = 0.0000 0.4330 0.0000 ( 48212 PWs)   bands (ev):

  -105.9896 -66.4636 -66.4100 -66.4097 -14.9404 -14.5030  -7.1809  -6.5042
    -5.7615  -5.6256  -4.6163  -4.5160  -4.2490  -3.8436  -3.7810  -2.6476
    -2.2468   1.1415   3.0562   3.5023

     occupation numbers 
     1.0000   1.0000   1.0000   1.0000   1.0000   1.0000   1.0000   1.0000
     1.0000   1.0000   1.0000   1.0000   1.0000   1.0000   1.0000   1.0000
     1.0000   0.0000   0.0000   0.0000

          k = 0.0000-0.5774 0.0000 ( 48254 PWs)   bands (ev):

  -105.9896 -66.4636 -66.4101 -66.4097 -14.6934 -14.5030  -7.5858  -6.6056
    -5.7623  -5.5732  -4.6533  -4.4817  -4.3191  -4.0588  -3.9336  -2.5305
    -2.2637   0.8553   2.9621   3.6819

     occupation numbers 
     1.0000   1.0000   1.0000   1.0000   1.0000   1.0000   1.0000   1.0000
     1.0000   1.0000   1.0000   1.0000   1.0000   1.0000   1.0000   1.0000
     1.0000   0.0000   0.0000   0.0000

          k = 0.1250 0.2165 0.0000 ( 48125 PWs)   bands (ev):

  -105.9897 -66.4636 -66.4098 -66.4097 -15.4519 -14.6770  -6.5623  -6.1558
    -5.8140  -5.0483  -4.7862  -4.0955  -3.6513  -3.5546  -3.3855  -2.6537
    -2.5113   2.6620   2.9092   3.0420

     occupation numbers 
     1.0000   1.0000   1.0000   1.0000   1.0000   1.0000   1.0000   1.0000
     1.0000   1.0000   1.0000   1.0000   1.0000   1.0000   1.0000   1.0000
     1.0000   0.0000   0.0000   0.0000

          k = 0.1250 0.3608 0.0000 ( 48162 PWs)   bands (ev):

  -105.9897 -66.4636 -66.4100 -66.4097 -15.0812 -14.5295  -6.7512  -6.4003
    -5.8172  -5.6079  -5.0822  -4.3017  -4.0745  -3.7994  -3.5390  -2.8366
    -2.5045   1.9709   3.2734   3.6689

     occupation numbers 
     1.0000   1.0000   1.0000   1.0000   1.0000   1.0000   1.0000   1.0000
     1.0000   1.0000   1.0000   1.0000   1.0000   1.0000   1.0000   1.0000
     1.0000   0.0000   0.0000   0.0000

          k = 0.1250 0.5052 0.0000 ( 48212 PWs)   bands (ev):

  -105.9896 -66.4636 -66.4101 -66.4098 -14.7274 -14.4725  -7.3737  -6.5384
    -5.7743  -5.5442  -5.2109  -4.7227  -4.0692  -4.0117  -3.7752  -2.6990
    -2.5150   1.4036   3.5774   3.9835

     occupation numbers 
     1.0000   1.0000   1.0000   1.0000   1.0000   1.0000   1.0000   1.0000
     1.0000   1.0000   1.0000   1.0000   1.0000   1.0000   1.0000   1.0000
     1.0000   0.0000   0.0000   0.0000

          k = 0.2500 0.4330 0.0000 ( 48187 PWs)   bands (ev):

  -105.9896 -66.4636 -66.4100 -66.4098 -14.7546 -14.4489  -7.0401  -6.4627
    -5.9943  -5.6178  -5.4900  -4.7677  -4.0433  -3.9444  -3.6376  -3.0792
    -2.5584   2.0283   3.3685   4.6351

     occupation numbers 
     1.0000   1.0000   1.0000   1.0000   1.0000   1.0000   1.0000   1.0000
     1.0000   1.0000   1.0000   1.0000   1.0000   1.0000   1.0000   1.0000
     1.0000   0.0000   0.0000   0.0000

          k = 0.2500 0.5774 0.0000 ( 48231 PWs)   bands (ev):

  -105.9896 -66.4635 -66.4100 -66.4099 -14.5586 -14.4634  -7.1787  -6.4693
    -6.1712  -5.6247  -5.4841  -5.0962  -4.0846  -3.8412  -3.7639  -2.9699
    -2.7196   1.8489   4.0027   4.1727

     occupation numbers 
     1.0000   1.0000   1.0000   1.0000   1.0000   1.0000   1.0000   1.0000
     1.0000   1.0000   1.0000   1.0000   1.0000   1.0000   1.0000   1.0000
     1.0000   0.0000   0.0000   0.0000

 ------ SPIN DOWN ----------


          k = 0.0000 0.0000 0.0000 ( 48107 PWs)   bands (ev):

  -104.6182 -64.9532 -64.9419 -64.9419 -15.5679 -14.5951  -6.6403  -4.5648
    -4.5648  -3.5471  -3.3354  -3.3354  -3.1759  -2.6265  -2.6265  -0.8845
    -0.8845   1.9004   2.6130   2.7570

     occupation numbers 
     1.0000   1.0000   1.0000   1.0000   1.0000   1.0000   1.0000   1.0000
     1.0000   1.0000   1.0000   1.0000   1.0000   1.0000   1.0000   0.0000
     0.0000   0.0000   0.0000   0.0000

          k = 0.0000 0.1443 0.0000 ( 48142 PWs)   bands (ev):

  -104.6182 -64.9532 -64.9420 -64.9419 -15.4467 -14.5286  -6.5243  -4.9580
    -4.5529  -3.8620  -3.5215  -3.3489  -3.2888  -2.7901  -2.6657  -1.3534
    -0.9594   2.3666   2.9050   3.1040

     occupation numbers 
     1.0000   1.0000   1.0000   1.0000   1.0000   1.0000   1.0000   1.0000
     1.0000   1.0000   1.0000   1.0000   1.0000   1.0000   1.0000   0.0000
     0.0000   0.0000   0.0000   0.0000

          k = 0.0000 0.2887 0.0000 ( 48148 PWs)   bands (ev):

  -104.6182 -64.9532 -64.9422 -64.9420 -15.1175 -14.3687  -6.3536  -5.7420
    -4.9202  -4.5256  -3.8758  -3.5051  -3.3059  -2.9018  -2.8528  -1.6060
    -1.0484   2.1584   3.0523   3.3373

     occupation numbers 
     1.0000   1.0000   1.0000   1.0000   1.0000   1.0000   1.0000   1.0000
     1.0000   1.0000   1.0000   1.0000   1.0000   1.0000   1.0000   0.0000
     0.0000   0.0000   0.0000   0.0000

          k = 0.0000 0.4330 0.0000 ( 48212 PWs)   bands (ev):

  -104.6182 -64.9531 -64.9424 -64.9420 -14.6979 -14.2346  -6.9859  -6.2075
    -5.0082  -4.5017  -4.1627  -4.0239  -3.3308  -3.0755  -3.0418  -1.3505
    -1.0766   1.3702   3.2107   3.6704

     occupation numbers 
     1.0000   1.0000   1.0000   1.0000   1.0000   1.0000   1.0000   1.0000
     1.0000   1.0000   1.0000   1.0000   1.0000   1.0000   1.0000   0.0000
     0.0000   0.0000   0.0000   0.0000

          k = 0.0000-0.5774 0.0000 ( 48254 PWs)   bands (ev):

  -104.6182 -64.9531 -64.9425 -64.9420 -14.4450 -14.2337  -7.3916  -6.4092
    -4.6017  -4.4933  -4.4323  -4.2694  -3.3395  -3.1670  -3.1545  -1.2194
    -1.0807   1.1101   3.1060   3.8988

     occupation numbers 
     1.0000   1.0000   1.0000   1.0000   1.0000   1.0000   1.0000   1.0000
     1.0000   1.0000   1.0000   1.0000   1.0000   1.0000   1.0000   0.0000
     0.0000   0.0000   0.0000   0.0000

          k = 0.1250 0.2165 0.0000 ( 48125 PWs)   bands (ev):

  -104.6182 -64.9532 -64.9421 -64.9420 -15.2210 -14.4145  -6.3570  -5.4467
    -4.7305  -4.5649  -3.8837  -3.3400  -3.3128  -2.8743  -2.7917  -1.4391
    -1.2911   2.8807   3.0178   3.1464

     occupation numbers 
     1.0000   1.0000   1.0000   1.0000   1.0000   1.0000   1.0000   1.0000
     1.0000   1.0000   1.0000   1.0000   1.0000   1.0000   1.0000   0.0000
     0.0000   0.0000   0.0000   0.0000

          k = 0.1250 0.3608 0.0000 ( 48162 PWs)   bands (ev):

  -104.6182 -64.9531 -64.9423 -64.9420 -14.8422 -14.2621  -6.5484  -6.0241
    -5.1832  -4.7199  -4.3040  -3.7560  -3.2954  -3.0233  -2.8918  -1.5320
    -1.2492   2.2023   3.4216   3.7771

     occupation numbers 
     1.0000   1.0000   1.0000   1.0000   1.0000   1.0000   1.0000   1.0000
     1.0000   1.0000   1.0000   1.0000   1.0000   1.0000   1.0000   0.0000
     0.0000   0.0000   0.0000   0.0000

          k = 0.1250 0.5052 0.0000 ( 48212 PWs)   bands (ev):

  -104.6182 -64.9531 -64.9424 -64.9421 -14.4784 -14.2038  -7.1801  -6.2941
    -5.0565  -4.6278  -4.6062  -4.2042  -3.2400  -3.1617  -3.0397  -1.4151
    -1.2148   1.6503   3.7277   4.1588

     occupation numbers 
     1.0000   1.0000   1.0000   1.0000   1.0000   1.0000   1.0000   1.0000
     1.0000   1.0000   1.0000   1.0000   1.0000   1.0000   1.0000   0.0000
     0.0000   0.0000   0.0000   0.0000

          k = 0.2500 0.4330 0.0000 ( 48187 PWs)   bands (ev):

  -104.6182 -64.9531 -64.9424 -64.9421 -14.5056 -14.1802  -6.8393  -6.2207
    -5.5537  -4.7917  -4.7196  -4.1052  -3.2115  -3.1620  -2.9374  -1.6719
    -1.2354   2.2774   3.5110   4.7481

     occupation numbers 
     1.0000   1.0000   1.0000   1.0000   1.0000   1.0000   1.0000   1.0000
     1.0000   1.0000   1.0000   1.0000   1.0000   1.0000   1.0000   0.0000
     0.0000   0.0000   0.0000   0.0000

          k = 0.2500 0.5774 0.0000 ( 48231 PWs)   bands (ev):

  -104.6182 -64.9531 -64.9424 -64.9422 -14.3018 -14.1975  -7.0003  -6.1591
    -5.9041  -5.0416  -4.4397  -4.3623  -3.2905  -3.0717  -3.0174  -1.5671
    -1.3667   2.0933   4.1690   4.3286

     occupation numbers 
     1.0000   1.0000   1.0000   1.0000   1.0000   1.0000   1.0000   1.0000
     1.0000   1.0000   1.0000   1.0000   1.0000   1.0000   1.0000   0.0000
     0.0000   0.0000   0.0000   0.0000

     the Fermi energy is    -1.7810 ev

!    total energy              =    -387.33450167 Ry
     estimated scf accuracy    <       0.00000048 Ry
     smearing contrib. (-TS)   =      -0.00000000 Ry
     internal energy E=F+TS    =    -387.33450167 Ry

     The total energy is F=E-TS. E is the sum of the following terms:
     one-electron contribution =   -1776.11441333 Ry
     hartree contribution      =     888.97308266 Ry
     xc contribution           =     -58.82679894 Ry
     ewald contribution        =     558.63362793 Ry

     total magnetization       =     2.00 Bohr mag/cell
     absolute magnetization    =     2.08 Bohr mag/cell

     convergence has been achieved in  10 iterations

     Writing all to output data dir ./tmp/csp.save/
 
     init_run     :      1.84s CPU      2.00s WALL (       1 calls)
     electrons    :     14.43s CPU     14.54s WALL (       1 calls)

     Called by init_run:
     wfcinit      :      0.36s CPU      0.39s WALL (       1 calls)
     wfcinit:atom :      0.01s CPU      0.01s WALL (      20 calls)
     wfcinit:wfcr :      0.33s CPU      0.35s WALL (      20 calls)
     potinit      :      0.40s CPU      0.40s WALL (       1 calls)
     hinit0       :      0.98s CPU      1.10s WALL (       1 calls)

     Called by electrons:
     c_bands      :     11.66s CPU     11.72s WALL (      10 calls)
     sum_band     :      1.89s CPU      1.90s WALL (      10 calls)
     v_of_rho     :      0.69s CPU      0.70s WALL (      11 calls)
     v_h          :      0.02s CPU      0.02s WALL (      11 calls)
     v_xc         :      0.67s CPU      0.68s WALL (      11 calls)
     mix_rho      :      0.16s CPU      0.16s WALL (      10 calls)

     Called by c_bands:
     init_us_2    :      0.43s CPU      0.43s WALL (     420 calls)
     init_us_2:cp :      0.43s CPU      0.43s WALL (     420 calls)
     cegterg      :      9.99s CPU     10.03s WALL (     200 calls)

     Called by sum_band:
     sum_band:wei :      0.00s CPU      0.00s WALL (      10 calls)
     sum_band:loo :      1.82s CPU      1.82s WALL (      10 calls)
     sum_band:buf :      0.06s CPU      0.06s WALL (     200 calls)
     sum_band:ini :      0.21s CPU      0.21s WALL (     200 calls)

     Called by *egterg:
     cdiaghg      :      0.38s CPU      0.40s WALL (     850 calls)
     cegterg:over :      0.55s CPU      0.55s WALL (     650 calls)
     cegterg:upda :      0.24s CPU      0.24s WALL (     650 calls)
     cegterg:last :      0.26s CPU      0.27s WALL (     399 calls)
     h_psi        :      8.48s CPU      8.51s WALL (     870 calls)
     g_psi        :      0.06s CPU      0.06s WALL (     650 calls)

     Called by h_psi:
     h_psi:calbec :      0.58s CPU      0.58s WALL (     870 calls)
     vloc_psi     :      7.32s CPU      7.35s WALL (     870 calls)
     add_vuspsi   :      0.46s CPU      0.46s WALL (     870 calls)

     General routines
     calbec       :      0.58s CPU      0.58s WALL (     870 calls)
     fft          :      0.45s CPU      0.57s WALL (     247 calls)
     ffts         :      0.03s CPU      0.03s WALL (      42 calls)
     fftw         :      7.37s CPU      7.40s WALL (   24554 calls)
     interpolate  :      0.05s CPU      0.05s WALL (      22 calls)
 
     Parallel routines
 
     PWSCF        :     16.56s CPU     17.42s WALL

 
   This run was terminated on:  23:16:15  26Jun2023            

=------------------------------------------------------------------------------=
   JOB DONE.
=------------------------------------------------------------------------------=
