
     Program PWSCF v.7.1 starts on 27Jun2023 at 15:46:36

     This program is part of the open-source Quantum ESPRESSO suite
     for quantum simulation of materials; please cite
         "P. Giannozzi et al., J. Phys.:Condens. Matter 21 395502 (2009);
         "P. Giannozzi et al., J. Phys.:Condens. Matter 29 465901 (2017);
         "P. Giannozzi et al., J. Chem. Phys. 152 154105 (2020);
          URL http://www.quantum-espresso.org",
     in publications or presentations arising from this work. More details at
     http://www.quantum-espresso.org/quote

     Parallel version (MPI & OpenMP), running on      20 processor cores
     Number of MPI processes:                20
     Threads/MPI process:                     1

     MPI processes distributed on     1 nodes
     225954 MiB available memory on the printing compute node when the environment starts

     Reading input from input/nscf.in

     Current dimensions of program PWSCF are:
     Max number of different atomic species (ntypx) = 10
     Max number of k-points (npk) =  40000
     Max angular momentum in pseudopotentials (lmaxx) =  4

     Atomic positions and unit cell read from directory:
     ./tmp/nnso.save/
     Atomic positions from file used, from input discarded


     Fixed quantization axis for GGA:     0.000000    0.000000    1.000000

     R & G space division:  proc/nbgrp/npool/nimage =      20
     Subspace diagonalization in iterative solution of the eigenvalue problem:
     a serial algorithm will be used


     Parallelization info
     --------------------
     sticks:   dense  smooth     PW     G-vecs:    dense   smooth      PW
     Min          93      89     25                20481    19267    2993
     Max          94      90     26                20502    19300    3024
     Sum        1879    1789    511               409943   385631   60191

     Using Slab Decomposition



     bravais-lattice index     =            0
     lattice parameter (alat)  =       7.3605  a.u.
     unit-cell volume          =    2170.2486 (a.u.)^3
     number of atoms/cell      =            3
     number of atomic types    =            2
     number of electrons       =        32.00
     number of Kohn-Sham states=           40
     kinetic-energy cutoff     =     120.0000  Ry
     charge density cutoff     =     500.0000  Ry
     Exchange-correlation= PBE
                           (   1   4   3   4   0   0   0)
     Noncollinear calculation without spin-orbit


     celldm(1)=   7.360481  celldm(2)=   0.000000  celldm(3)=   0.000000
     celldm(4)=   0.000000  celldm(5)=   0.000000  celldm(6)=   0.000000

     crystal axes: (cart. coord. in units of alat)
               a(1) = (   1.000000   0.000000   0.000000 )
               a(2) = (  -0.500000   0.866025   0.000000 )
               a(3) = (   0.000000   0.000000   6.284350 )

     reciprocal axes: (cart. coord. in units 2 pi/alat)
               b(1) = (  1.000000  0.577350  0.000000 )
               b(2) = (  0.000000  1.154701  0.000000 )
               b(3) = (  0.000000  0.000000  0.159125 )


     PseudoPot. # 1 for Ni read from file:
     ../../pseudo/Ni.upf
     MD5 check sum: 14a7e289c5fff9cacaba393040e62f02
     Pseudo is Norm-conserving + core correction, Zval = 18.0
     Generated using ONCVPSP code by D. R. Hamann
     Using radial grid of 1372 points,  6 beta functions with:
                l(1) =   0
                l(2) =   0
                l(3) =   1
                l(4) =   1
                l(5) =   2
                l(6) =   2

     PseudoPot. # 2 for I  read from file:
     ../../pseudo/I.upf
     MD5 check sum: 301f7009ca0a2b18b0adf53dca02d42f
     Pseudo is Norm-conserving + core correction, Zval =  7.0
     Generated using ONCVPSP code by D. R. Hamann
     Using radial grid of 1210 points,  6 beta functions with:
                l(1) =   0
                l(2) =   0
                l(3) =   1
                l(4) =   1
                l(5) =   2
                l(6) =   2

     atomic species   valence    mass     pseudopotential
        Ni            18.00    58.69340     Ni( 1.00)
        I              7.00   126.90447     I ( 1.00)

     No symmetry found


                                    s                        frac. trans.

      isym =  1     identity

 Time Reversal            0
 cryst.   s( 1) = (     1          0          0      )
                  (     0          1          0      )
                  (     0          0          1      )

 cart.    s( 1) = (  1.0000000 -0.0000000  0.0000000 )
                  (  0.0000000  1.0000000  0.0000000 )
                  (  0.0000000  0.0000000  1.0000000 )


   Cartesian axes

     site n.     atom                  positions (alat units)
         1           Ni  tau(   1) = (   0.0000000   0.0000000   3.1421749  )
         2           I   tau(   2) = (  -0.0000000   0.5773503   3.5289144  )
         3           I   tau(   3) = (   0.5000000   0.2886751   2.7554354  )

   Crystallographic axes

     site n.     atom                  positions (cryst. coord.)
         1           Ni  tau(   1) = (  0.0000000  0.0000000  0.5000000  )
         2           I   tau(   2) = (  0.3333333  0.6666667  0.5615401  )
         3           I   tau(   3) = (  0.6666667  0.3333333  0.4384599  )

     number of k points=   256  Marzari-Vanderbilt smearing, width (Ry)=  0.0015
                       cart. coord. in units 2pi/alat
        k(    1) = (   0.0000000   0.0000000   0.0000000), wk =   0.0039062
        k(    2) = (   0.0000000   0.0721688   0.0000000), wk =   0.0039062
        k(    3) = (   0.0000000   0.1443376   0.0000000), wk =   0.0039062
        k(    4) = (   0.0000000   0.2165064   0.0000000), wk =   0.0039062
        k(    5) = (   0.0000000   0.2886751   0.0000000), wk =   0.0039062
        k(    6) = (   0.0000000   0.3608439   0.0000000), wk =   0.0039062
        k(    7) = (   0.0000000   0.4330127   0.0000000), wk =   0.0039062
        k(    8) = (   0.0000000   0.5051815   0.0000000), wk =   0.0039062
        k(    9) = (   0.0000000  -0.5773503   0.0000000), wk =   0.0039062
        k(   10) = (   0.0000000  -0.5051815   0.0000000), wk =   0.0039062
        k(   11) = (   0.0000000  -0.4330127   0.0000000), wk =   0.0039062
        k(   12) = (   0.0000000  -0.3608439   0.0000000), wk =   0.0039062
        k(   13) = (   0.0000000  -0.2886751   0.0000000), wk =   0.0039062
        k(   14) = (   0.0000000  -0.2165064   0.0000000), wk =   0.0039062
        k(   15) = (   0.0000000  -0.1443376   0.0000000), wk =   0.0039062
        k(   16) = (   0.0000000  -0.0721688   0.0000000), wk =   0.0039062
        k(   17) = (   0.0625000   0.0360844   0.0000000), wk =   0.0039062
        k(   18) = (   0.0625000   0.1082532   0.0000000), wk =   0.0039062
        k(   19) = (   0.0625000   0.1804220   0.0000000), wk =   0.0039062
        k(   20) = (   0.0625000   0.2525907   0.0000000), wk =   0.0039062
        k(   21) = (   0.0625000   0.3247595   0.0000000), wk =   0.0039062
        k(   22) = (   0.0625000   0.3969283   0.0000000), wk =   0.0039062
        k(   23) = (   0.0625000   0.4690971   0.0000000), wk =   0.0039062
        k(   24) = (   0.0625000   0.5412659   0.0000000), wk =   0.0039062
        k(   25) = (   0.0625000  -0.5412659   0.0000000), wk =   0.0039062
        k(   26) = (   0.0625000  -0.4690971   0.0000000), wk =   0.0039062
        k(   27) = (   0.0625000  -0.3969283   0.0000000), wk =   0.0039062
        k(   28) = (   0.0625000  -0.3247595   0.0000000), wk =   0.0039062
        k(   29) = (   0.0625000  -0.2525907   0.0000000), wk =   0.0039062
        k(   30) = (   0.0625000  -0.1804220   0.0000000), wk =   0.0039062
        k(   31) = (   0.0625000  -0.1082532   0.0000000), wk =   0.0039062
        k(   32) = (   0.0625000  -0.0360844   0.0000000), wk =   0.0039062
        k(   33) = (   0.1250000   0.0721688   0.0000000), wk =   0.0039062
        k(   34) = (   0.1250000   0.1443376   0.0000000), wk =   0.0039062
        k(   35) = (   0.1250000   0.2165064   0.0000000), wk =   0.0039062
        k(   36) = (   0.1250000   0.2886751   0.0000000), wk =   0.0039062
        k(   37) = (   0.1250000   0.3608439   0.0000000), wk =   0.0039062
        k(   38) = (   0.1250000   0.4330127   0.0000000), wk =   0.0039062
        k(   39) = (   0.1250000   0.5051815   0.0000000), wk =   0.0039062
        k(   40) = (   0.1250000   0.5773503   0.0000000), wk =   0.0039062
        k(   41) = (   0.1250000  -0.5051815   0.0000000), wk =   0.0039062
        k(   42) = (   0.1250000  -0.4330127   0.0000000), wk =   0.0039062
        k(   43) = (   0.1250000  -0.3608439   0.0000000), wk =   0.0039062
        k(   44) = (   0.1250000  -0.2886751   0.0000000), wk =   0.0039062
        k(   45) = (   0.1250000  -0.2165064   0.0000000), wk =   0.0039062
        k(   46) = (   0.1250000  -0.1443376   0.0000000), wk =   0.0039062
        k(   47) = (   0.1250000  -0.0721688   0.0000000), wk =   0.0039062
        k(   48) = (   0.1250000   0.0000000   0.0000000), wk =   0.0039062
        k(   49) = (   0.1875000   0.1082532   0.0000000), wk =   0.0039062
        k(   50) = (   0.1875000   0.1804220   0.0000000), wk =   0.0039062
        k(   51) = (   0.1875000   0.2525907   0.0000000), wk =   0.0039062
        k(   52) = (   0.1875000   0.3247595   0.0000000), wk =   0.0039062
        k(   53) = (   0.1875000   0.3969283   0.0000000), wk =   0.0039062
        k(   54) = (   0.1875000   0.4690971   0.0000000), wk =   0.0039062
        k(   55) = (   0.1875000   0.5412659   0.0000000), wk =   0.0039062
        k(   56) = (   0.1875000   0.6134347   0.0000000), wk =   0.0039062
        k(   57) = (   0.1875000  -0.4690971   0.0000000), wk =   0.0039062
        k(   58) = (   0.1875000  -0.3969283   0.0000000), wk =   0.0039062
        k(   59) = (   0.1875000  -0.3247595   0.0000000), wk =   0.0039062
        k(   60) = (   0.1875000  -0.2525907   0.0000000), wk =   0.0039062
        k(   61) = (   0.1875000  -0.1804220   0.0000000), wk =   0.0039062
        k(   62) = (   0.1875000  -0.1082532   0.0000000), wk =   0.0039062
        k(   63) = (   0.1875000  -0.0360844   0.0000000), wk =   0.0039062
        k(   64) = (   0.1875000   0.0360844   0.0000000), wk =   0.0039062
        k(   65) = (   0.2500000   0.1443376   0.0000000), wk =   0.0039062
        k(   66) = (   0.2500000   0.2165064   0.0000000), wk =   0.0039062
        k(   67) = (   0.2500000   0.2886751   0.0000000), wk =   0.0039062
        k(   68) = (   0.2500000   0.3608439   0.0000000), wk =   0.0039062
        k(   69) = (   0.2500000   0.4330127   0.0000000), wk =   0.0039062
        k(   70) = (   0.2500000   0.5051815   0.0000000), wk =   0.0039062
        k(   71) = (   0.2500000   0.5773503   0.0000000), wk =   0.0039062
        k(   72) = (   0.2500000   0.6495191   0.0000000), wk =   0.0039062
        k(   73) = (   0.2500000  -0.4330127   0.0000000), wk =   0.0039062
        k(   74) = (   0.2500000  -0.3608439   0.0000000), wk =   0.0039062
        k(   75) = (   0.2500000  -0.2886751   0.0000000), wk =   0.0039062
        k(   76) = (   0.2500000  -0.2165064   0.0000000), wk =   0.0039062
        k(   77) = (   0.2500000  -0.1443376   0.0000000), wk =   0.0039062
        k(   78) = (   0.2500000  -0.0721688   0.0000000), wk =   0.0039062
        k(   79) = (   0.2500000   0.0000000   0.0000000), wk =   0.0039062
        k(   80) = (   0.2500000   0.0721688   0.0000000), wk =   0.0039062
        k(   81) = (   0.3125000   0.1804220   0.0000000), wk =   0.0039062
        k(   82) = (   0.3125000   0.2525907   0.0000000), wk =   0.0039062
        k(   83) = (   0.3125000   0.3247595   0.0000000), wk =   0.0039062
        k(   84) = (   0.3125000   0.3969283   0.0000000), wk =   0.0039062
        k(   85) = (   0.3125000   0.4690971   0.0000000), wk =   0.0039062
        k(   86) = (   0.3125000   0.5412659   0.0000000), wk =   0.0039062
        k(   87) = (   0.3125000   0.6134347   0.0000000), wk =   0.0039062
        k(   88) = (   0.3125000   0.6856034   0.0000000), wk =   0.0039062
        k(   89) = (   0.3125000  -0.3969283   0.0000000), wk =   0.0039062
        k(   90) = (   0.3125000  -0.3247595   0.0000000), wk =   0.0039062
        k(   91) = (   0.3125000  -0.2525907   0.0000000), wk =   0.0039062
        k(   92) = (   0.3125000  -0.1804220   0.0000000), wk =   0.0039062
        k(   93) = (   0.3125000  -0.1082532   0.0000000), wk =   0.0039062
        k(   94) = (   0.3125000  -0.0360844   0.0000000), wk =   0.0039062
        k(   95) = (   0.3125000   0.0360844   0.0000000), wk =   0.0039062
        k(   96) = (   0.3125000   0.1082532   0.0000000), wk =   0.0039062
        k(   97) = (   0.3750000   0.2165064   0.0000000), wk =   0.0039062
        k(   98) = (   0.3750000   0.2886751   0.0000000), wk =   0.0039062
        k(   99) = (   0.3750000   0.3608439   0.0000000), wk =   0.0039062
        k(  100) = (   0.3750000   0.4330127   0.0000000), wk =   0.0039062
        k(  101) = (   0.3750000   0.5051815   0.0000000), wk =   0.0039062
        k(  102) = (   0.3750000   0.5773503   0.0000000), wk =   0.0039062
        k(  103) = (   0.3750000   0.6495191   0.0000000), wk =   0.0039062
        k(  104) = (   0.3750000   0.7216878   0.0000000), wk =   0.0039062
        k(  105) = (   0.3750000  -0.3608439   0.0000000), wk =   0.0039062
        k(  106) = (   0.3750000  -0.2886751   0.0000000), wk =   0.0039062
        k(  107) = (   0.3750000  -0.2165064   0.0000000), wk =   0.0039062
        k(  108) = (   0.3750000  -0.1443376   0.0000000), wk =   0.0039062
        k(  109) = (   0.3750000  -0.0721688   0.0000000), wk =   0.0039062
        k(  110) = (   0.3750000   0.0000000   0.0000000), wk =   0.0039062
        k(  111) = (   0.3750000   0.0721688   0.0000000), wk =   0.0039062
        k(  112) = (   0.3750000   0.1443376   0.0000000), wk =   0.0039062
        k(  113) = (   0.4375000   0.2525907   0.0000000), wk =   0.0039062
        k(  114) = (   0.4375000   0.3247595   0.0000000), wk =   0.0039062
        k(  115) = (   0.4375000   0.3969283   0.0000000), wk =   0.0039062
        k(  116) = (   0.4375000   0.4690971   0.0000000), wk =   0.0039062
        k(  117) = (   0.4375000   0.5412659   0.0000000), wk =   0.0039062
        k(  118) = (   0.4375000   0.6134347   0.0000000), wk =   0.0039062
        k(  119) = (   0.4375000   0.6856034   0.0000000), wk =   0.0039062
        k(  120) = (   0.4375000   0.7577722   0.0000000), wk =   0.0039062
        k(  121) = (   0.4375000  -0.3247595   0.0000000), wk =   0.0039062
        k(  122) = (   0.4375000  -0.2525907   0.0000000), wk =   0.0039062
        k(  123) = (   0.4375000  -0.1804220   0.0000000), wk =   0.0039062
        k(  124) = (   0.4375000  -0.1082532   0.0000000), wk =   0.0039062
        k(  125) = (   0.4375000  -0.0360844   0.0000000), wk =   0.0039062
        k(  126) = (   0.4375000   0.0360844   0.0000000), wk =   0.0039062
        k(  127) = (   0.4375000   0.1082532   0.0000000), wk =   0.0039062
        k(  128) = (   0.4375000   0.1804220   0.0000000), wk =   0.0039062
        k(  129) = (  -0.5000000  -0.2886751   0.0000000), wk =   0.0039062
        k(  130) = (  -0.5000000  -0.2165064   0.0000000), wk =   0.0039062
        k(  131) = (  -0.5000000  -0.1443376   0.0000000), wk =   0.0039062
        k(  132) = (  -0.5000000  -0.0721688   0.0000000), wk =   0.0039062
        k(  133) = (  -0.5000000   0.0000000   0.0000000), wk =   0.0039062
        k(  134) = (  -0.5000000   0.0721688   0.0000000), wk =   0.0039062
        k(  135) = (  -0.5000000   0.1443376   0.0000000), wk =   0.0039062
        k(  136) = (  -0.5000000   0.2165064   0.0000000), wk =   0.0039062
        k(  137) = (  -0.5000000  -0.8660254   0.0000000), wk =   0.0039062
        k(  138) = (  -0.5000000  -0.7938566   0.0000000), wk =   0.0039062
        k(  139) = (  -0.5000000  -0.7216878   0.0000000), wk =   0.0039062
        k(  140) = (  -0.5000000  -0.6495191   0.0000000), wk =   0.0039062
        k(  141) = (  -0.5000000  -0.5773503   0.0000000), wk =   0.0039062
        k(  142) = (  -0.5000000  -0.5051815   0.0000000), wk =   0.0039062
        k(  143) = (  -0.5000000  -0.4330127   0.0000000), wk =   0.0039062
        k(  144) = (  -0.5000000  -0.3608439   0.0000000), wk =   0.0039062
        k(  145) = (  -0.4375000  -0.2525907   0.0000000), wk =   0.0039062
        k(  146) = (  -0.4375000  -0.1804220   0.0000000), wk =   0.0039062
        k(  147) = (  -0.4375000  -0.1082532   0.0000000), wk =   0.0039062
        k(  148) = (  -0.4375000  -0.0360844   0.0000000), wk =   0.0039062
        k(  149) = (  -0.4375000   0.0360844   0.0000000), wk =   0.0039062
        k(  150) = (  -0.4375000   0.1082532   0.0000000), wk =   0.0039062
        k(  151) = (  -0.4375000   0.1804220   0.0000000), wk =   0.0039062
        k(  152) = (  -0.4375000   0.2525907   0.0000000), wk =   0.0039062
        k(  153) = (  -0.4375000  -0.8299410   0.0000000), wk =   0.0039062
        k(  154) = (  -0.4375000  -0.7577722   0.0000000), wk =   0.0039062
        k(  155) = (  -0.4375000  -0.6856034   0.0000000), wk =   0.0039062
        k(  156) = (  -0.4375000  -0.6134347   0.0000000), wk =   0.0039062
        k(  157) = (  -0.4375000  -0.5412659   0.0000000), wk =   0.0039062
        k(  158) = (  -0.4375000  -0.4690971   0.0000000), wk =   0.0039062
        k(  159) = (  -0.4375000  -0.3969283   0.0000000), wk =   0.0039062
        k(  160) = (  -0.4375000  -0.3247595   0.0000000), wk =   0.0039062
        k(  161) = (  -0.3750000  -0.2165064   0.0000000), wk =   0.0039062
        k(  162) = (  -0.3750000  -0.1443376   0.0000000), wk =   0.0039062
        k(  163) = (  -0.3750000  -0.0721688   0.0000000), wk =   0.0039062
        k(  164) = (  -0.3750000   0.0000000   0.0000000), wk =   0.0039062
        k(  165) = (  -0.3750000   0.0721688   0.0000000), wk =   0.0039062
        k(  166) = (  -0.3750000   0.1443376   0.0000000), wk =   0.0039062
        k(  167) = (  -0.3750000   0.2165064   0.0000000), wk =   0.0039062
        k(  168) = (  -0.3750000   0.2886751   0.0000000), wk =   0.0039062
        k(  169) = (  -0.3750000  -0.7938566   0.0000000), wk =   0.0039062
        k(  170) = (  -0.3750000  -0.7216878   0.0000000), wk =   0.0039062
        k(  171) = (  -0.3750000  -0.6495191   0.0000000), wk =   0.0039062
        k(  172) = (  -0.3750000  -0.5773503   0.0000000), wk =   0.0039062
        k(  173) = (  -0.3750000  -0.5051815   0.0000000), wk =   0.0039062
        k(  174) = (  -0.3750000  -0.4330127   0.0000000), wk =   0.0039062
        k(  175) = (  -0.3750000  -0.3608439   0.0000000), wk =   0.0039062
        k(  176) = (  -0.3750000  -0.2886751   0.0000000), wk =   0.0039062
        k(  177) = (  -0.3125000  -0.1804220   0.0000000), wk =   0.0039062
        k(  178) = (  -0.3125000  -0.1082532   0.0000000), wk =   0.0039062
        k(  179) = (  -0.3125000  -0.0360844   0.0000000), wk =   0.0039062
        k(  180) = (  -0.3125000   0.0360844   0.0000000), wk =   0.0039062
        k(  181) = (  -0.3125000   0.1082532   0.0000000), wk =   0.0039062
        k(  182) = (  -0.3125000   0.1804220   0.0000000), wk =   0.0039062
        k(  183) = (  -0.3125000   0.2525907   0.0000000), wk =   0.0039062
        k(  184) = (  -0.3125000   0.3247595   0.0000000), wk =   0.0039062
        k(  185) = (  -0.3125000  -0.7577722   0.0000000), wk =   0.0039062
        k(  186) = (  -0.3125000  -0.6856034   0.0000000), wk =   0.0039062
        k(  187) = (  -0.3125000  -0.6134347   0.0000000), wk =   0.0039062
        k(  188) = (  -0.3125000  -0.5412659   0.0000000), wk =   0.0039062
        k(  189) = (  -0.3125000  -0.4690971   0.0000000), wk =   0.0039062
        k(  190) = (  -0.3125000  -0.3969283   0.0000000), wk =   0.0039062
        k(  191) = (  -0.3125000  -0.3247595   0.0000000), wk =   0.0039062
        k(  192) = (  -0.3125000  -0.2525907   0.0000000), wk =   0.0039062
        k(  193) = (  -0.2500000  -0.1443376   0.0000000), wk =   0.0039062
        k(  194) = (  -0.2500000  -0.0721688   0.0000000), wk =   0.0039062
        k(  195) = (  -0.2500000   0.0000000   0.0000000), wk =   0.0039062
        k(  196) = (  -0.2500000   0.0721688   0.0000000), wk =   0.0039062
        k(  197) = (  -0.2500000   0.1443376   0.0000000), wk =   0.0039062
        k(  198) = (  -0.2500000   0.2165064   0.0000000), wk =   0.0039062
        k(  199) = (  -0.2500000   0.2886751   0.0000000), wk =   0.0039062
        k(  200) = (  -0.2500000   0.3608439   0.0000000), wk =   0.0039062
        k(  201) = (  -0.2500000  -0.7216878   0.0000000), wk =   0.0039062
        k(  202) = (  -0.2500000  -0.6495191   0.0000000), wk =   0.0039062
        k(  203) = (  -0.2500000  -0.5773503   0.0000000), wk =   0.0039062
        k(  204) = (  -0.2500000  -0.5051815   0.0000000), wk =   0.0039062
        k(  205) = (  -0.2500000  -0.4330127   0.0000000), wk =   0.0039062
        k(  206) = (  -0.2500000  -0.3608439   0.0000000), wk =   0.0039062
        k(  207) = (  -0.2500000  -0.2886751   0.0000000), wk =   0.0039062
        k(  208) = (  -0.2500000  -0.2165064   0.0000000), wk =   0.0039062
        k(  209) = (  -0.1875000  -0.1082532   0.0000000), wk =   0.0039062
        k(  210) = (  -0.1875000  -0.0360844   0.0000000), wk =   0.0039062
        k(  211) = (  -0.1875000   0.0360844   0.0000000), wk =   0.0039062
        k(  212) = (  -0.1875000   0.1082532   0.0000000), wk =   0.0039062
        k(  213) = (  -0.1875000   0.1804220   0.0000000), wk =   0.0039062
        k(  214) = (  -0.1875000   0.2525907   0.0000000), wk =   0.0039062
        k(  215) = (  -0.1875000   0.3247595   0.0000000), wk =   0.0039062
        k(  216) = (  -0.1875000   0.3969283   0.0000000), wk =   0.0039062
        k(  217) = (  -0.1875000  -0.6856034   0.0000000), wk =   0.0039062
        k(  218) = (  -0.1875000  -0.6134347   0.0000000), wk =   0.0039062
        k(  219) = (  -0.1875000  -0.5412659   0.0000000), wk =   0.0039062
        k(  220) = (  -0.1875000  -0.4690971   0.0000000), wk =   0.0039062
        k(  221) = (  -0.1875000  -0.3969283   0.0000000), wk =   0.0039062
        k(  222) = (  -0.1875000  -0.3247595   0.0000000), wk =   0.0039062
        k(  223) = (  -0.1875000  -0.2525907   0.0000000), wk =   0.0039062
        k(  224) = (  -0.1875000  -0.1804220   0.0000000), wk =   0.0039062
        k(  225) = (  -0.1250000  -0.0721688   0.0000000), wk =   0.0039062
        k(  226) = (  -0.1250000   0.0000000   0.0000000), wk =   0.0039062
        k(  227) = (  -0.1250000   0.0721688   0.0000000), wk =   0.0039062
        k(  228) = (  -0.1250000   0.1443376   0.0000000), wk =   0.0039062
        k(  229) = (  -0.1250000   0.2165064   0.0000000), wk =   0.0039062
        k(  230) = (  -0.1250000   0.2886751   0.0000000), wk =   0.0039062
        k(  231) = (  -0.1250000   0.3608439   0.0000000), wk =   0.0039062
        k(  232) = (  -0.1250000   0.4330127   0.0000000), wk =   0.0039062
        k(  233) = (  -0.1250000  -0.6495191   0.0000000), wk =   0.0039062
        k(  234) = (  -0.1250000  -0.5773503   0.0000000), wk =   0.0039062
        k(  235) = (  -0.1250000  -0.5051815   0.0000000), wk =   0.0039062
        k(  236) = (  -0.1250000  -0.4330127   0.0000000), wk =   0.0039062
        k(  237) = (  -0.1250000  -0.3608439   0.0000000), wk =   0.0039062
        k(  238) = (  -0.1250000  -0.2886751   0.0000000), wk =   0.0039062
        k(  239) = (  -0.1250000  -0.2165064   0.0000000), wk =   0.0039062
        k(  240) = (  -0.1250000  -0.1443376   0.0000000), wk =   0.0039062
        k(  241) = (  -0.0625000  -0.0360844   0.0000000), wk =   0.0039062
        k(  242) = (  -0.0625000   0.0360844   0.0000000), wk =   0.0039062
        k(  243) = (  -0.0625000   0.1082532   0.0000000), wk =   0.0039062
        k(  244) = (  -0.0625000   0.1804220   0.0000000), wk =   0.0039062
        k(  245) = (  -0.0625000   0.2525907   0.0000000), wk =   0.0039062
        k(  246) = (  -0.0625000   0.3247595   0.0000000), wk =   0.0039062
        k(  247) = (  -0.0625000   0.3969283   0.0000000), wk =   0.0039062
        k(  248) = (  -0.0625000   0.4690971   0.0000000), wk =   0.0039062
        k(  249) = (  -0.0625000  -0.6134347   0.0000000), wk =   0.0039062
        k(  250) = (  -0.0625000  -0.5412659   0.0000000), wk =   0.0039062
        k(  251) = (  -0.0625000  -0.4690971   0.0000000), wk =   0.0039062
        k(  252) = (  -0.0625000  -0.3969283   0.0000000), wk =   0.0039062
        k(  253) = (  -0.0625000  -0.3247595   0.0000000), wk =   0.0039062
        k(  254) = (  -0.0625000  -0.2525907   0.0000000), wk =   0.0039062
        k(  255) = (  -0.0625000  -0.1804220   0.0000000), wk =   0.0039062
        k(  256) = (  -0.0625000  -0.1082532   0.0000000), wk =   0.0039062

                       cryst. coord.
        k(    1) = (   0.0000000   0.0000000   0.0000000), wk =   0.0039062
        k(    2) = (   0.0000000   0.0625000   0.0000000), wk =   0.0039062
        k(    3) = (   0.0000000   0.1250000   0.0000000), wk =   0.0039062
        k(    4) = (   0.0000000   0.1875000   0.0000000), wk =   0.0039062
        k(    5) = (   0.0000000   0.2500000   0.0000000), wk =   0.0039062
        k(    6) = (   0.0000000   0.3125000   0.0000000), wk =   0.0039062
        k(    7) = (   0.0000000   0.3750000   0.0000000), wk =   0.0039062
        k(    8) = (   0.0000000   0.4375000   0.0000000), wk =   0.0039062
        k(    9) = (   0.0000000  -0.5000000   0.0000000), wk =   0.0039062
        k(   10) = (   0.0000000  -0.4375000   0.0000000), wk =   0.0039062
        k(   11) = (   0.0000000  -0.3750000   0.0000000), wk =   0.0039062
        k(   12) = (   0.0000000  -0.3125000   0.0000000), wk =   0.0039062
        k(   13) = (   0.0000000  -0.2500000   0.0000000), wk =   0.0039062
        k(   14) = (   0.0000000  -0.1875000   0.0000000), wk =   0.0039062
        k(   15) = (   0.0000000  -0.1250000   0.0000000), wk =   0.0039062
        k(   16) = (   0.0000000  -0.0625000   0.0000000), wk =   0.0039062
        k(   17) = (   0.0625000  -0.0000000   0.0000000), wk =   0.0039062
        k(   18) = (   0.0625000   0.0625000   0.0000000), wk =   0.0039062
        k(   19) = (   0.0625000   0.1250000   0.0000000), wk =   0.0039062
        k(   20) = (   0.0625000   0.1875000   0.0000000), wk =   0.0039062
        k(   21) = (   0.0625000   0.2500000   0.0000000), wk =   0.0039062
        k(   22) = (   0.0625000   0.3125000   0.0000000), wk =   0.0039062
        k(   23) = (   0.0625000   0.3750000   0.0000000), wk =   0.0039062
        k(   24) = (   0.0625000   0.4375000   0.0000000), wk =   0.0039062
        k(   25) = (   0.0625000  -0.5000000   0.0000000), wk =   0.0039062
        k(   26) = (   0.0625000  -0.4375000   0.0000000), wk =   0.0039062
        k(   27) = (   0.0625000  -0.3750000   0.0000000), wk =   0.0039062
        k(   28) = (   0.0625000  -0.3125000   0.0000000), wk =   0.0039062
        k(   29) = (   0.0625000  -0.2500000   0.0000000), wk =   0.0039062
        k(   30) = (   0.0625000  -0.1875000   0.0000000), wk =   0.0039062
        k(   31) = (   0.0625000  -0.1250000   0.0000000), wk =   0.0039062
        k(   32) = (   0.0625000  -0.0625000   0.0000000), wk =   0.0039062
        k(   33) = (   0.1250000  -0.0000000   0.0000000), wk =   0.0039062
        k(   34) = (   0.1250000   0.0625000   0.0000000), wk =   0.0039062
        k(   35) = (   0.1250000   0.1250000   0.0000000), wk =   0.0039062
        k(   36) = (   0.1250000   0.1875000   0.0000000), wk =   0.0039062
        k(   37) = (   0.1250000   0.2500000   0.0000000), wk =   0.0039062
        k(   38) = (   0.1250000   0.3125000   0.0000000), wk =   0.0039062
        k(   39) = (   0.1250000   0.3750000   0.0000000), wk =   0.0039062
        k(   40) = (   0.1250000   0.4375000   0.0000000), wk =   0.0039062
        k(   41) = (   0.1250000  -0.5000000   0.0000000), wk =   0.0039062
        k(   42) = (   0.1250000  -0.4375000   0.0000000), wk =   0.0039062
        k(   43) = (   0.1250000  -0.3750000   0.0000000), wk =   0.0039062
        k(   44) = (   0.1250000  -0.3125000   0.0000000), wk =   0.0039062
        k(   45) = (   0.1250000  -0.2500000   0.0000000), wk =   0.0039062
        k(   46) = (   0.1250000  -0.1875000   0.0000000), wk =   0.0039062
        k(   47) = (   0.1250000  -0.1250000   0.0000000), wk =   0.0039062
        k(   48) = (   0.1250000  -0.0625000   0.0000000), wk =   0.0039062
        k(   49) = (   0.1875000  -0.0000000   0.0000000), wk =   0.0039062
        k(   50) = (   0.1875000   0.0625000   0.0000000), wk =   0.0039062
        k(   51) = (   0.1875000   0.1250000   0.0000000), wk =   0.0039062
        k(   52) = (   0.1875000   0.1875000   0.0000000), wk =   0.0039062
        k(   53) = (   0.1875000   0.2500000   0.0000000), wk =   0.0039062
        k(   54) = (   0.1875000   0.3125000   0.0000000), wk =   0.0039062
        k(   55) = (   0.1875000   0.3750000   0.0000000), wk =   0.0039062
        k(   56) = (   0.1875000   0.4375000   0.0000000), wk =   0.0039062
        k(   57) = (   0.1875000  -0.5000000   0.0000000), wk =   0.0039062
        k(   58) = (   0.1875000  -0.4375000   0.0000000), wk =   0.0039062
        k(   59) = (   0.1875000  -0.3750000   0.0000000), wk =   0.0039062
        k(   60) = (   0.1875000  -0.3125000   0.0000000), wk =   0.0039062
        k(   61) = (   0.1875000  -0.2500000   0.0000000), wk =   0.0039062
        k(   62) = (   0.1875000  -0.1875000   0.0000000), wk =   0.0039062
        k(   63) = (   0.1875000  -0.1250000   0.0000000), wk =   0.0039062
        k(   64) = (   0.1875000  -0.0625000   0.0000000), wk =   0.0039062
        k(   65) = (   0.2500000  -0.0000000   0.0000000), wk =   0.0039062
        k(   66) = (   0.2500000   0.0625000   0.0000000), wk =   0.0039062
        k(   67) = (   0.2500000   0.1250000   0.0000000), wk =   0.0039062
        k(   68) = (   0.2500000   0.1875000   0.0000000), wk =   0.0039062
        k(   69) = (   0.2500000   0.2500000   0.0000000), wk =   0.0039062
        k(   70) = (   0.2500000   0.3125000   0.0000000), wk =   0.0039062
        k(   71) = (   0.2500000   0.3750000   0.0000000), wk =   0.0039062
        k(   72) = (   0.2500000   0.4375000   0.0000000), wk =   0.0039062
        k(   73) = (   0.2500000  -0.5000000   0.0000000), wk =   0.0039062
        k(   74) = (   0.2500000  -0.4375000   0.0000000), wk =   0.0039062
        k(   75) = (   0.2500000  -0.3750000   0.0000000), wk =   0.0039062
        k(   76) = (   0.2500000  -0.3125000   0.0000000), wk =   0.0039062
        k(   77) = (   0.2500000  -0.2500000   0.0000000), wk =   0.0039062
        k(   78) = (   0.2500000  -0.1875000   0.0000000), wk =   0.0039062
        k(   79) = (   0.2500000  -0.1250000   0.0000000), wk =   0.0039062
        k(   80) = (   0.2500000  -0.0625000   0.0000000), wk =   0.0039062
        k(   81) = (   0.3125000  -0.0000000   0.0000000), wk =   0.0039062
        k(   82) = (   0.3125000   0.0625000   0.0000000), wk =   0.0039062
        k(   83) = (   0.3125000   0.1250000   0.0000000), wk =   0.0039062
        k(   84) = (   0.3125000   0.1875000   0.0000000), wk =   0.0039062
        k(   85) = (   0.3125000   0.2500000   0.0000000), wk =   0.0039062
        k(   86) = (   0.3125000   0.3125000   0.0000000), wk =   0.0039062
        k(   87) = (   0.3125000   0.3750000   0.0000000), wk =   0.0039062
        k(   88) = (   0.3125000   0.4375000   0.0000000), wk =   0.0039062
        k(   89) = (   0.3125000  -0.5000000   0.0000000), wk =   0.0039062
        k(   90) = (   0.3125000  -0.4375000   0.0000000), wk =   0.0039062
        k(   91) = (   0.3125000  -0.3750000   0.0000000), wk =   0.0039062
        k(   92) = (   0.3125000  -0.3125000   0.0000000), wk =   0.0039062
        k(   93) = (   0.3125000  -0.2500000   0.0000000), wk =   0.0039062
        k(   94) = (   0.3125000  -0.1875000   0.0000000), wk =   0.0039062
        k(   95) = (   0.3125000  -0.1250000   0.0000000), wk =   0.0039062
        k(   96) = (   0.3125000  -0.0625000   0.0000000), wk =   0.0039062
        k(   97) = (   0.3750000  -0.0000000   0.0000000), wk =   0.0039062
        k(   98) = (   0.3750000   0.0625000   0.0000000), wk =   0.0039062
        k(   99) = (   0.3750000   0.1250000   0.0000000), wk =   0.0039062
        k(  100) = (   0.3750000   0.1875000   0.0000000), wk =   0.0039062
        k(  101) = (   0.3750000   0.2500000   0.0000000), wk =   0.0039062
        k(  102) = (   0.3750000   0.3125000   0.0000000), wk =   0.0039062
        k(  103) = (   0.3750000   0.3750000   0.0000000), wk =   0.0039062
        k(  104) = (   0.3750000   0.4375000   0.0000000), wk =   0.0039062
        k(  105) = (   0.3750000  -0.5000000   0.0000000), wk =   0.0039062
        k(  106) = (   0.3750000  -0.4375000   0.0000000), wk =   0.0039062
        k(  107) = (   0.3750000  -0.3750000   0.0000000), wk =   0.0039062
        k(  108) = (   0.3750000  -0.3125000   0.0000000), wk =   0.0039062
        k(  109) = (   0.3750000  -0.2500000   0.0000000), wk =   0.0039062
        k(  110) = (   0.3750000  -0.1875000   0.0000000), wk =   0.0039062
        k(  111) = (   0.3750000  -0.1250000   0.0000000), wk =   0.0039062
        k(  112) = (   0.3750000  -0.0625000   0.0000000), wk =   0.0039062
        k(  113) = (   0.4375000  -0.0000000   0.0000000), wk =   0.0039062
        k(  114) = (   0.4375000   0.0625000   0.0000000), wk =   0.0039062
        k(  115) = (   0.4375000   0.1250000   0.0000000), wk =   0.0039062
        k(  116) = (   0.4375000   0.1875000   0.0000000), wk =   0.0039062
        k(  117) = (   0.4375000   0.2500000   0.0000000), wk =   0.0039062
        k(  118) = (   0.4375000   0.3125000   0.0000000), wk =   0.0039062
        k(  119) = (   0.4375000   0.3750000   0.0000000), wk =   0.0039062
        k(  120) = (   0.4375000   0.4375000   0.0000000), wk =   0.0039062
        k(  121) = (   0.4375000  -0.5000000   0.0000000), wk =   0.0039062
        k(  122) = (   0.4375000  -0.4375000   0.0000000), wk =   0.0039062
        k(  123) = (   0.4375000  -0.3750000   0.0000000), wk =   0.0039062
        k(  124) = (   0.4375000  -0.3125000   0.0000000), wk =   0.0039062
        k(  125) = (   0.4375000  -0.2500000   0.0000000), wk =   0.0039062
        k(  126) = (   0.4375000  -0.1875000   0.0000000), wk =   0.0039062
        k(  127) = (   0.4375000  -0.1250000   0.0000000), wk =   0.0039062
        k(  128) = (   0.4375000  -0.0625000   0.0000000), wk =   0.0039062
        k(  129) = (  -0.5000000   0.0000000   0.0000000), wk =   0.0039062
        k(  130) = (  -0.5000000   0.0625000   0.0000000), wk =   0.0039062
        k(  131) = (  -0.5000000   0.1250000   0.0000000), wk =   0.0039062
        k(  132) = (  -0.5000000   0.1875000   0.0000000), wk =   0.0039062
        k(  133) = (  -0.5000000   0.2500000   0.0000000), wk =   0.0039062
        k(  134) = (  -0.5000000   0.3125000   0.0000000), wk =   0.0039062
        k(  135) = (  -0.5000000   0.3750000   0.0000000), wk =   0.0039062
        k(  136) = (  -0.5000000   0.4375000   0.0000000), wk =   0.0039062
        k(  137) = (  -0.5000000  -0.5000000   0.0000000), wk =   0.0039062
        k(  138) = (  -0.5000000  -0.4375000   0.0000000), wk =   0.0039062
        k(  139) = (  -0.5000000  -0.3750000   0.0000000), wk =   0.0039062
        k(  140) = (  -0.5000000  -0.3125000   0.0000000), wk =   0.0039062
        k(  141) = (  -0.5000000  -0.2500000   0.0000000), wk =   0.0039062
        k(  142) = (  -0.5000000  -0.1875000   0.0000000), wk =   0.0039062
        k(  143) = (  -0.5000000  -0.1250000   0.0000000), wk =   0.0039062
        k(  144) = (  -0.5000000  -0.0625000   0.0000000), wk =   0.0039062
        k(  145) = (  -0.4375000   0.0000000   0.0000000), wk =   0.0039062
        k(  146) = (  -0.4375000   0.0625000   0.0000000), wk =   0.0039062
        k(  147) = (  -0.4375000   0.1250000   0.0000000), wk =   0.0039062
        k(  148) = (  -0.4375000   0.1875000   0.0000000), wk =   0.0039062
        k(  149) = (  -0.4375000   0.2500000   0.0000000), wk =   0.0039062
        k(  150) = (  -0.4375000   0.3125000   0.0000000), wk =   0.0039062
        k(  151) = (  -0.4375000   0.3750000   0.0000000), wk =   0.0039062
        k(  152) = (  -0.4375000   0.4375000   0.0000000), wk =   0.0039062
        k(  153) = (  -0.4375000  -0.5000000   0.0000000), wk =   0.0039062
        k(  154) = (  -0.4375000  -0.4375000   0.0000000), wk =   0.0039062
        k(  155) = (  -0.4375000  -0.3750000   0.0000000), wk =   0.0039062
        k(  156) = (  -0.4375000  -0.3125000   0.0000000), wk =   0.0039062
        k(  157) = (  -0.4375000  -0.2500000   0.0000000), wk =   0.0039062
        k(  158) = (  -0.4375000  -0.1875000   0.0000000), wk =   0.0039062
        k(  159) = (  -0.4375000  -0.1250000   0.0000000), wk =   0.0039062
        k(  160) = (  -0.4375000  -0.0625000   0.0000000), wk =   0.0039062
        k(  161) = (  -0.3750000   0.0000000   0.0000000), wk =   0.0039062
        k(  162) = (  -0.3750000   0.0625000   0.0000000), wk =   0.0039062
        k(  163) = (  -0.3750000   0.1250000   0.0000000), wk =   0.0039062
        k(  164) = (  -0.3750000   0.1875000   0.0000000), wk =   0.0039062
        k(  165) = (  -0.3750000   0.2500000   0.0000000), wk =   0.0039062
        k(  166) = (  -0.3750000   0.3125000   0.0000000), wk =   0.0039062
        k(  167) = (  -0.3750000   0.3750000   0.0000000), wk =   0.0039062
        k(  168) = (  -0.3750000   0.4375000   0.0000000), wk =   0.0039062
        k(  169) = (  -0.3750000  -0.5000000   0.0000000), wk =   0.0039062
        k(  170) = (  -0.3750000  -0.4375000   0.0000000), wk =   0.0039062
        k(  171) = (  -0.3750000  -0.3750000   0.0000000), wk =   0.0039062
        k(  172) = (  -0.3750000  -0.3125000   0.0000000), wk =   0.0039062
        k(  173) = (  -0.3750000  -0.2500000   0.0000000), wk =   0.0039062
        k(  174) = (  -0.3750000  -0.1875000   0.0000000), wk =   0.0039062
        k(  175) = (  -0.3750000  -0.1250000   0.0000000), wk =   0.0039062
        k(  176) = (  -0.3750000  -0.0625000   0.0000000), wk =   0.0039062
        k(  177) = (  -0.3125000   0.0000000   0.0000000), wk =   0.0039062
        k(  178) = (  -0.3125000   0.0625000   0.0000000), wk =   0.0039062
        k(  179) = (  -0.3125000   0.1250000   0.0000000), wk =   0.0039062
        k(  180) = (  -0.3125000   0.1875000   0.0000000), wk =   0.0039062
        k(  181) = (  -0.3125000   0.2500000   0.0000000), wk =   0.0039062
        k(  182) = (  -0.3125000   0.3125000   0.0000000), wk =   0.0039062
        k(  183) = (  -0.3125000   0.3750000   0.0000000), wk =   0.0039062
        k(  184) = (  -0.3125000   0.4375000   0.0000000), wk =   0.0039062
        k(  185) = (  -0.3125000  -0.5000000   0.0000000), wk =   0.0039062
        k(  186) = (  -0.3125000  -0.4375000   0.0000000), wk =   0.0039062
        k(  187) = (  -0.3125000  -0.3750000   0.0000000), wk =   0.0039062
        k(  188) = (  -0.3125000  -0.3125000   0.0000000), wk =   0.0039062
        k(  189) = (  -0.3125000  -0.2500000   0.0000000), wk =   0.0039062
        k(  190) = (  -0.3125000  -0.1875000   0.0000000), wk =   0.0039062
        k(  191) = (  -0.3125000  -0.1250000   0.0000000), wk =   0.0039062
        k(  192) = (  -0.3125000  -0.0625000   0.0000000), wk =   0.0039062
        k(  193) = (  -0.2500000   0.0000000   0.0000000), wk =   0.0039062
        k(  194) = (  -0.2500000   0.0625000   0.0000000), wk =   0.0039062
        k(  195) = (  -0.2500000   0.1250000   0.0000000), wk =   0.0039062
        k(  196) = (  -0.2500000   0.1875000   0.0000000), wk =   0.0039062
        k(  197) = (  -0.2500000   0.2500000   0.0000000), wk =   0.0039062
        k(  198) = (  -0.2500000   0.3125000   0.0000000), wk =   0.0039062
        k(  199) = (  -0.2500000   0.3750000   0.0000000), wk =   0.0039062
        k(  200) = (  -0.2500000   0.4375000   0.0000000), wk =   0.0039062
        k(  201) = (  -0.2500000  -0.5000000   0.0000000), wk =   0.0039062
        k(  202) = (  -0.2500000  -0.4375000   0.0000000), wk =   0.0039062
        k(  203) = (  -0.2500000  -0.3750000   0.0000000), wk =   0.0039062
        k(  204) = (  -0.2500000  -0.3125000   0.0000000), wk =   0.0039062
        k(  205) = (  -0.2500000  -0.2500000   0.0000000), wk =   0.0039062
        k(  206) = (  -0.2500000  -0.1875000   0.0000000), wk =   0.0039062
        k(  207) = (  -0.2500000  -0.1250000   0.0000000), wk =   0.0039062
        k(  208) = (  -0.2500000  -0.0625000   0.0000000), wk =   0.0039062
        k(  209) = (  -0.1875000   0.0000000   0.0000000), wk =   0.0039062
        k(  210) = (  -0.1875000   0.0625000   0.0000000), wk =   0.0039062
        k(  211) = (  -0.1875000   0.1250000   0.0000000), wk =   0.0039062
        k(  212) = (  -0.1875000   0.1875000   0.0000000), wk =   0.0039062
        k(  213) = (  -0.1875000   0.2500000   0.0000000), wk =   0.0039062
        k(  214) = (  -0.1875000   0.3125000   0.0000000), wk =   0.0039062
        k(  215) = (  -0.1875000   0.3750000   0.0000000), wk =   0.0039062
        k(  216) = (  -0.1875000   0.4375000   0.0000000), wk =   0.0039062
        k(  217) = (  -0.1875000  -0.5000000   0.0000000), wk =   0.0039062
        k(  218) = (  -0.1875000  -0.4375000   0.0000000), wk =   0.0039062
        k(  219) = (  -0.1875000  -0.3750000   0.0000000), wk =   0.0039062
        k(  220) = (  -0.1875000  -0.3125000   0.0000000), wk =   0.0039062
        k(  221) = (  -0.1875000  -0.2500000   0.0000000), wk =   0.0039062
        k(  222) = (  -0.1875000  -0.1875000   0.0000000), wk =   0.0039062
        k(  223) = (  -0.1875000  -0.1250000   0.0000000), wk =   0.0039062
        k(  224) = (  -0.1875000  -0.0625000   0.0000000), wk =   0.0039062
        k(  225) = (  -0.1250000   0.0000000   0.0000000), wk =   0.0039062
        k(  226) = (  -0.1250000   0.0625000   0.0000000), wk =   0.0039062
        k(  227) = (  -0.1250000   0.1250000   0.0000000), wk =   0.0039062
        k(  228) = (  -0.1250000   0.1875000   0.0000000), wk =   0.0039062
        k(  229) = (  -0.1250000   0.2500000   0.0000000), wk =   0.0039062
        k(  230) = (  -0.1250000   0.3125000   0.0000000), wk =   0.0039062
        k(  231) = (  -0.1250000   0.3750000   0.0000000), wk =   0.0039062
        k(  232) = (  -0.1250000   0.4375000   0.0000000), wk =   0.0039062
        k(  233) = (  -0.1250000  -0.5000000   0.0000000), wk =   0.0039062
        k(  234) = (  -0.1250000  -0.4375000   0.0000000), wk =   0.0039062
        k(  235) = (  -0.1250000  -0.3750000   0.0000000), wk =   0.0039062
        k(  236) = (  -0.1250000  -0.3125000   0.0000000), wk =   0.0039062
        k(  237) = (  -0.1250000  -0.2500000   0.0000000), wk =   0.0039062
        k(  238) = (  -0.1250000  -0.1875000   0.0000000), wk =   0.0039062
        k(  239) = (  -0.1250000  -0.1250000   0.0000000), wk =   0.0039062
        k(  240) = (  -0.1250000  -0.0625000   0.0000000), wk =   0.0039062
        k(  241) = (  -0.0625000   0.0000000   0.0000000), wk =   0.0039062
        k(  242) = (  -0.0625000   0.0625000   0.0000000), wk =   0.0039062
        k(  243) = (  -0.0625000   0.1250000   0.0000000), wk =   0.0039062
        k(  244) = (  -0.0625000   0.1875000   0.0000000), wk =   0.0039062
        k(  245) = (  -0.0625000   0.2500000   0.0000000), wk =   0.0039062
        k(  246) = (  -0.0625000   0.3125000   0.0000000), wk =   0.0039062
        k(  247) = (  -0.0625000   0.3750000   0.0000000), wk =   0.0039062
        k(  248) = (  -0.0625000   0.4375000   0.0000000), wk =   0.0039062
        k(  249) = (  -0.0625000  -0.5000000   0.0000000), wk =   0.0039062
        k(  250) = (  -0.0625000  -0.4375000   0.0000000), wk =   0.0039062
        k(  251) = (  -0.0625000  -0.3750000   0.0000000), wk =   0.0039062
        k(  252) = (  -0.0625000  -0.3125000   0.0000000), wk =   0.0039062
        k(  253) = (  -0.0625000  -0.2500000   0.0000000), wk =   0.0039062
        k(  254) = (  -0.0625000  -0.1875000   0.0000000), wk =   0.0039062
        k(  255) = (  -0.0625000  -0.1250000   0.0000000), wk =   0.0039062
        k(  256) = (  -0.0625000  -0.0625000   0.0000000), wk =   0.0039062

     Dense  grid:   409943 G-vectors     FFT dimensions: (  54,  54, 360)

     Smooth grid:   385631 G-vectors     FFT dimensions: (  54,  54, 324)

     Dynamical RAM for                 wfc:       2.94 MB

     Dynamical RAM for     wfc (w. buffer):       2.94 MB

     Dynamical RAM for           str. fact:       0.63 MB

     Dynamical RAM for           local pot:       0.00 MB

     Dynamical RAM for          nlocal pot:       1.98 MB

     Dynamical RAM for                qrad:       3.59 MB

     Dynamical RAM for          rho,v,vnew:       8.56 MB

     Dynamical RAM for           G-vectors:       1.32 MB

     Dynamical RAM for          h,s,v(r/c):       0.29 MB

     Dynamical RAM for          <psi|beta>:       0.07 MB

     Dynamical RAM for                 psi:       5.88 MB

     Dynamical RAM for                hpsi:       5.88 MB

     Dynamical RAM for      wfcinit/wfcrot:       4.45 MB

     Estimated static dynamical RAM per process >      23.16 MB

     Estimated max dynamical RAM per process >      35.28 MB

     Estimated total dynamical RAM >     705.54 MB
     Generating pointlists ...
     new r_m :   0.2867 (alat units)  2.1099 (a.u.) for type    1
     new r_m :   0.2867 (alat units)  2.1099 (a.u.) for type    2

     The potential is recalculated from file :
     ./tmp/nnso.save/charge-density

     Starting wfcs are   36 randomized atomic wfcs +    4 random wfcs

     Band Structure Calculation
     Davidson diagonalization with overlap

     Computing kpt #:     1  of   256
     total cpu time spent up to now is        3.2 secs

     Computing kpt #:     2  of   256
     total cpu time spent up to now is        4.9 secs

     Computing kpt #:     3  of   256
     total cpu time spent up to now is        6.7 secs

     Computing kpt #:     4  of   256
     total cpu time spent up to now is        8.4 secs

     Computing kpt #:     5  of   256
     total cpu time spent up to now is       10.1 secs

     Computing kpt #:     6  of   256
     total cpu time spent up to now is       11.9 secs

     Computing kpt #:     7  of   256
     total cpu time spent up to now is       13.5 secs

     Computing kpt #:     8  of   256
     total cpu time spent up to now is       15.1 secs

     Computing kpt #:     9  of   256
     total cpu time spent up to now is       16.7 secs

     Computing kpt #:    10  of   256
     total cpu time spent up to now is       18.3 secs

     Computing kpt #:    11  of   256
     total cpu time spent up to now is       20.0 secs

     Computing kpt #:    12  of   256
     total cpu time spent up to now is       21.7 secs

     Computing kpt #:    13  of   256
     total cpu time spent up to now is       23.4 secs

     Computing kpt #:    14  of   256
     total cpu time spent up to now is       25.2 secs

     Computing kpt #:    15  of   256
     total cpu time spent up to now is       27.0 secs

     Computing kpt #:    16  of   256
     total cpu time spent up to now is       28.9 secs

     Computing kpt #:    17  of   256
     total cpu time spent up to now is       30.7 secs

     Computing kpt #:    18  of   256
     total cpu time spent up to now is       32.7 secs

     Computing kpt #:    19  of   256
     total cpu time spent up to now is       34.7 secs

     Computing kpt #:    20  of   256
     total cpu time spent up to now is       36.4 secs

     Computing kpt #:    21  of   256
     total cpu time spent up to now is       38.2 secs

     Computing kpt #:    22  of   256
     total cpu time spent up to now is       40.0 secs

     Computing kpt #:    23  of   256
     total cpu time spent up to now is       41.7 secs

     Computing kpt #:    24  of   256
     total cpu time spent up to now is       43.4 secs

     Computing kpt #:    25  of   256
     total cpu time spent up to now is       45.1 secs

     Computing kpt #:    26  of   256
     total cpu time spent up to now is       46.8 secs

     Computing kpt #:    27  of   256
     total cpu time spent up to now is       48.6 secs

     Computing kpt #:    28  of   256
     total cpu time spent up to now is       50.3 secs

     Computing kpt #:    29  of   256
     total cpu time spent up to now is       52.1 secs

     Computing kpt #:    30  of   256
     total cpu time spent up to now is       54.0 secs

     Computing kpt #:    31  of   256
     total cpu time spent up to now is       56.0 secs

     Computing kpt #:    32  of   256
     total cpu time spent up to now is       57.9 secs

     Computing kpt #:    33  of   256
     total cpu time spent up to now is       59.8 secs

     Computing kpt #:    34  of   256
     total cpu time spent up to now is       61.6 secs

     Computing kpt #:    35  of   256
     total cpu time spent up to now is       63.4 secs

     Computing kpt #:    36  of   256
     total cpu time spent up to now is       65.2 secs

     Computing kpt #:    37  of   256
     total cpu time spent up to now is       66.9 secs

     Computing kpt #:    38  of   256
     total cpu time spent up to now is       68.8 secs

     Computing kpt #:    39  of   256
     total cpu time spent up to now is       70.6 secs

     Computing kpt #:    40  of   256
     total cpu time spent up to now is       72.8 secs

     Computing kpt #:    41  of   256
     total cpu time spent up to now is       74.6 secs

     Computing kpt #:    42  of   256
     total cpu time spent up to now is       76.4 secs

     Computing kpt #:    43  of   256
     total cpu time spent up to now is       78.2 secs

     Computing kpt #:    44  of   256
     total cpu time spent up to now is       80.0 secs

     Computing kpt #:    45  of   256
     total cpu time spent up to now is       81.7 secs

     Computing kpt #:    46  of   256
     total cpu time spent up to now is       83.6 secs

     Computing kpt #:    47  of   256
     total cpu time spent up to now is       85.7 secs

     Computing kpt #:    48  of   256
     total cpu time spent up to now is       87.8 secs

     Computing kpt #:    49  of   256
     total cpu time spent up to now is       89.6 secs

     Computing kpt #:    50  of   256
     total cpu time spent up to now is       91.4 secs

     Computing kpt #:    51  of   256
     total cpu time spent up to now is       93.2 secs

     Computing kpt #:    52  of   256
     total cpu time spent up to now is       94.8 secs

     Computing kpt #:    53  of   256
     total cpu time spent up to now is       96.6 secs

     Computing kpt #:    54  of   256
     total cpu time spent up to now is       98.5 secs

     Computing kpt #:    55  of   256
     total cpu time spent up to now is      100.3 secs

     Computing kpt #:    56  of   256
     total cpu time spent up to now is      102.2 secs

     Computing kpt #:    57  of   256
     total cpu time spent up to now is      104.1 secs

     Computing kpt #:    58  of   256
     total cpu time spent up to now is      105.8 secs

     Computing kpt #:    59  of   256
     total cpu time spent up to now is      107.5 secs

     Computing kpt #:    60  of   256
     total cpu time spent up to now is      109.3 secs

     Computing kpt #:    61  of   256
     total cpu time spent up to now is      111.1 secs

     Computing kpt #:    62  of   256
     total cpu time spent up to now is      112.9 secs

     Computing kpt #:    63  of   256
     total cpu time spent up to now is      114.8 secs

     Computing kpt #:    64  of   256
     total cpu time spent up to now is      116.7 secs

     Computing kpt #:    65  of   256
     total cpu time spent up to now is      118.5 secs

     Computing kpt #:    66  of   256
     total cpu time spent up to now is      120.2 secs

     Computing kpt #:    67  of   256
     total cpu time spent up to now is      122.0 secs

     Computing kpt #:    68  of   256
     total cpu time spent up to now is      123.8 secs

     Computing kpt #:    69  of   256
     total cpu time spent up to now is      125.6 secs

     Computing kpt #:    70  of   256
     total cpu time spent up to now is      127.4 secs

     Computing kpt #:    71  of   256
     total cpu time spent up to now is      129.1 secs

     Computing kpt #:    72  of   256
     total cpu time spent up to now is      130.9 secs

     Computing kpt #:    73  of   256
     total cpu time spent up to now is      132.7 secs

     Computing kpt #:    74  of   256
     total cpu time spent up to now is      134.5 secs

     Computing kpt #:    75  of   256
     total cpu time spent up to now is      136.3 secs

     Computing kpt #:    76  of   256
     total cpu time spent up to now is      138.1 secs

     Computing kpt #:    77  of   256
     total cpu time spent up to now is      139.9 secs

     Computing kpt #:    78  of   256
     total cpu time spent up to now is      141.7 secs

     Computing kpt #:    79  of   256
     total cpu time spent up to now is      143.4 secs

     Computing kpt #:    80  of   256
     total cpu time spent up to now is      145.3 secs

     Computing kpt #:    81  of   256
     total cpu time spent up to now is      147.0 secs

     Computing kpt #:    82  of   256
     total cpu time spent up to now is      148.8 secs

     Computing kpt #:    83  of   256
     total cpu time spent up to now is      150.6 secs

     Computing kpt #:    84  of   256
     total cpu time spent up to now is      152.5 secs

     Computing kpt #:    85  of   256
     total cpu time spent up to now is      154.3 secs

     Computing kpt #:    86  of   256
     total cpu time spent up to now is      155.9 secs

     Computing kpt #:    87  of   256
     total cpu time spent up to now is      157.6 secs

     Computing kpt #:    88  of   256
     total cpu time spent up to now is      159.3 secs

     Computing kpt #:    89  of   256
     total cpu time spent up to now is      161.2 secs

     Computing kpt #:    90  of   256
     total cpu time spent up to now is      163.0 secs

     Computing kpt #:    91  of   256
     total cpu time spent up to now is      164.8 secs

     Computing kpt #:    92  of   256
     total cpu time spent up to now is      166.6 secs

     Computing kpt #:    93  of   256
     total cpu time spent up to now is      168.3 secs

     Computing kpt #:    94  of   256
     total cpu time spent up to now is      170.1 secs

     Computing kpt #:    95  of   256
     total cpu time spent up to now is      171.9 secs

     Computing kpt #:    96  of   256
     total cpu time spent up to now is      173.7 secs

     Computing kpt #:    97  of   256
     total cpu time spent up to now is      175.3 secs

     Computing kpt #:    98  of   256
     total cpu time spent up to now is      176.8 secs

     Computing kpt #:    99  of   256
     total cpu time spent up to now is      178.4 secs

     Computing kpt #:   100  of   256
     total cpu time spent up to now is      180.1 secs

     Computing kpt #:   101  of   256
     total cpu time spent up to now is      181.6 secs

     Computing kpt #:   102  of   256
     total cpu time spent up to now is      183.1 secs

     Computing kpt #:   103  of   256
     total cpu time spent up to now is      184.6 secs

     Computing kpt #:   104  of   256
     total cpu time spent up to now is      186.1 secs

     Computing kpt #:   105  of   256
     total cpu time spent up to now is      187.6 secs

     Computing kpt #:   106  of   256
     total cpu time spent up to now is      189.1 secs

     Computing kpt #:   107  of   256
     total cpu time spent up to now is      190.7 secs

     Computing kpt #:   108  of   256
     total cpu time spent up to now is      192.4 secs

     Computing kpt #:   109  of   256
     total cpu time spent up to now is      194.1 secs

     Computing kpt #:   110  of   256
     total cpu time spent up to now is      195.6 secs

     Computing kpt #:   111  of   256
     total cpu time spent up to now is      197.3 secs

     Computing kpt #:   112  of   256
     total cpu time spent up to now is      198.9 secs

     Computing kpt #:   113  of   256
     total cpu time spent up to now is      200.3 secs

     Computing kpt #:   114  of   256
     total cpu time spent up to now is      201.8 secs

     Computing kpt #:   115  of   256
     total cpu time spent up to now is      203.7 secs

     Computing kpt #:   116  of   256
     total cpu time spent up to now is      205.6 secs

     Computing kpt #:   117  of   256
     total cpu time spent up to now is      207.3 secs

     Computing kpt #:   118  of   256
     total cpu time spent up to now is      209.0 secs

     Computing kpt #:   119  of   256
     total cpu time spent up to now is      210.6 secs

     Computing kpt #:   120  of   256
     total cpu time spent up to now is      212.6 secs

     Computing kpt #:   121  of   256
     total cpu time spent up to now is      214.1 secs

     Computing kpt #:   122  of   256
     total cpu time spent up to now is      215.4 secs

     Computing kpt #:   123  of   256
     total cpu time spent up to now is      216.9 secs

     Computing kpt #:   124  of   256
     total cpu time spent up to now is      218.3 secs

     Computing kpt #:   125  of   256
     total cpu time spent up to now is      219.8 secs

     Computing kpt #:   126  of   256
     total cpu time spent up to now is      221.2 secs

     Computing kpt #:   127  of   256
     total cpu time spent up to now is      222.7 secs

     Computing kpt #:   128  of   256
     total cpu time spent up to now is      224.1 secs

     Computing kpt #:   129  of   256
     total cpu time spent up to now is      225.6 secs

     Computing kpt #:   130  of   256
     total cpu time spent up to now is      227.1 secs

     Computing kpt #:   131  of   256
     total cpu time spent up to now is      228.5 secs

     Computing kpt #:   132  of   256
     total cpu time spent up to now is      230.0 secs

     Computing kpt #:   133  of   256
     total cpu time spent up to now is      231.5 secs

     Computing kpt #:   134  of   256
     total cpu time spent up to now is      233.0 secs

     Computing kpt #:   135  of   256
     total cpu time spent up to now is      234.5 secs

     Computing kpt #:   136  of   256
     total cpu time spent up to now is      235.9 secs

     Computing kpt #:   137  of   256
     total cpu time spent up to now is      237.4 secs

     Computing kpt #:   138  of   256
     total cpu time spent up to now is      238.8 secs

     Computing kpt #:   139  of   256
     total cpu time spent up to now is      240.3 secs

     Computing kpt #:   140  of   256
     total cpu time spent up to now is      241.8 secs

     Computing kpt #:   141  of   256
     total cpu time spent up to now is      243.3 secs

     Computing kpt #:   142  of   256
     total cpu time spent up to now is      244.8 secs

     Computing kpt #:   143  of   256
     total cpu time spent up to now is      246.3 secs

     Computing kpt #:   144  of   256
     total cpu time spent up to now is      247.7 secs

     Computing kpt #:   145  of   256
     total cpu time spent up to now is      249.1 secs

     Computing kpt #:   146  of   256
     total cpu time spent up to now is      250.5 secs

     Computing kpt #:   147  of   256
     total cpu time spent up to now is      252.0 secs

     Computing kpt #:   148  of   256
     total cpu time spent up to now is      253.4 secs

     Computing kpt #:   149  of   256
     total cpu time spent up to now is      254.9 secs

     Computing kpt #:   150  of   256
     total cpu time spent up to now is      256.4 secs

     Computing kpt #:   151  of   256
     total cpu time spent up to now is      257.8 secs

     Computing kpt #:   152  of   256
     total cpu time spent up to now is      259.1 secs

     Computing kpt #:   153  of   256
     total cpu time spent up to now is      260.6 secs

     Computing kpt #:   154  of   256
     total cpu time spent up to now is      262.3 secs

     Computing kpt #:   155  of   256
     total cpu time spent up to now is      263.8 secs

     Computing kpt #:   156  of   256
     total cpu time spent up to now is      265.3 secs

     Computing kpt #:   157  of   256
     total cpu time spent up to now is      266.7 secs

     Computing kpt #:   158  of   256
     total cpu time spent up to now is      268.2 secs

     Computing kpt #:   159  of   256
     total cpu time spent up to now is      270.0 secs

     Computing kpt #:   160  of   256
     total cpu time spent up to now is      271.4 secs

     Computing kpt #:   161  of   256
     total cpu time spent up to now is      272.8 secs

     Computing kpt #:   162  of   256
     total cpu time spent up to now is      274.2 secs

     Computing kpt #:   163  of   256
     total cpu time spent up to now is      275.7 secs

     Computing kpt #:   164  of   256
     total cpu time spent up to now is      277.0 secs

     Computing kpt #:   165  of   256
     total cpu time spent up to now is      278.5 secs

     Computing kpt #:   166  of   256
     total cpu time spent up to now is      279.9 secs

     Computing kpt #:   167  of   256
     total cpu time spent up to now is      281.2 secs

     Computing kpt #:   168  of   256
     total cpu time spent up to now is      282.6 secs

     Computing kpt #:   169  of   256
     total cpu time spent up to now is      284.1 secs

     Computing kpt #:   170  of   256
     total cpu time spent up to now is      285.6 secs

     Computing kpt #:   171  of   256
     total cpu time spent up to now is      287.0 secs

     Computing kpt #:   172  of   256
     total cpu time spent up to now is      288.4 secs

     Computing kpt #:   173  of   256
     total cpu time spent up to now is      289.7 secs

     Computing kpt #:   174  of   256
     total cpu time spent up to now is      291.2 secs

     Computing kpt #:   175  of   256
     total cpu time spent up to now is      292.7 secs

     Computing kpt #:   176  of   256
     total cpu time spent up to now is      294.1 secs

     Computing kpt #:   177  of   256
     total cpu time spent up to now is      295.5 secs

     Computing kpt #:   178  of   256
     total cpu time spent up to now is      297.0 secs

     Computing kpt #:   179  of   256
     total cpu time spent up to now is      298.4 secs

     Computing kpt #:   180  of   256
     total cpu time spent up to now is      299.9 secs

     Computing kpt #:   181  of   256
     total cpu time spent up to now is      301.3 secs

     Computing kpt #:   182  of   256
     total cpu time spent up to now is      302.7 secs

     Computing kpt #:   183  of   256
     total cpu time spent up to now is      304.2 secs

     Computing kpt #:   184  of   256
     total cpu time spent up to now is      305.7 secs

     Computing kpt #:   185  of   256
     total cpu time spent up to now is      307.2 secs

     Computing kpt #:   186  of   256
     total cpu time spent up to now is      308.7 secs

     Computing kpt #:   187  of   256
     total cpu time spent up to now is      310.0 secs

     Computing kpt #:   188  of   256
     total cpu time spent up to now is      311.4 secs

     Computing kpt #:   189  of   256
     total cpu time spent up to now is      312.8 secs

     Computing kpt #:   190  of   256
     total cpu time spent up to now is      314.5 secs

     Computing kpt #:   191  of   256
     total cpu time spent up to now is      316.0 secs

     Computing kpt #:   192  of   256
     total cpu time spent up to now is      317.4 secs

     Computing kpt #:   193  of   256
     total cpu time spent up to now is      318.8 secs

     Computing kpt #:   194  of   256
     total cpu time spent up to now is      320.3 secs

     Computing kpt #:   195  of   256
     total cpu time spent up to now is      321.8 secs

     Computing kpt #:   196  of   256
     total cpu time spent up to now is      323.3 secs

     Computing kpt #:   197  of   256
     total cpu time spent up to now is      324.7 secs

     Computing kpt #:   198  of   256
     total cpu time spent up to now is      326.1 secs

     Computing kpt #:   199  of   256
     total cpu time spent up to now is      327.6 secs

     Computing kpt #:   200  of   256
     total cpu time spent up to now is      329.0 secs

     Computing kpt #:   201  of   256
     total cpu time spent up to now is      330.5 secs

     Computing kpt #:   202  of   256
     total cpu time spent up to now is      331.9 secs

     Computing kpt #:   203  of   256
     total cpu time spent up to now is      333.3 secs

     Computing kpt #:   204  of   256
     total cpu time spent up to now is      334.8 secs

     Computing kpt #:   205  of   256
     total cpu time spent up to now is      336.2 secs

     Computing kpt #:   206  of   256
     total cpu time spent up to now is      337.7 secs

     Computing kpt #:   207  of   256
     total cpu time spent up to now is      339.1 secs

     Computing kpt #:   208  of   256
     total cpu time spent up to now is      340.6 secs

     Computing kpt #:   209  of   256
     total cpu time spent up to now is      342.0 secs

     Computing kpt #:   210  of   256
     total cpu time spent up to now is      343.6 secs

     Computing kpt #:   211  of   256
     total cpu time spent up to now is      345.1 secs

     Computing kpt #:   212  of   256
     total cpu time spent up to now is      346.6 secs

     Computing kpt #:   213  of   256
     total cpu time spent up to now is      348.0 secs

     Computing kpt #:   214  of   256
     total cpu time spent up to now is      349.5 secs

     Computing kpt #:   215  of   256
     total cpu time spent up to now is      350.8 secs

     Computing kpt #:   216  of   256
     total cpu time spent up to now is      352.3 secs

     Computing kpt #:   217  of   256
     total cpu time spent up to now is      353.8 secs

     Computing kpt #:   218  of   256
     total cpu time spent up to now is      355.3 secs

     Computing kpt #:   219  of   256
     total cpu time spent up to now is      356.8 secs

     Computing kpt #:   220  of   256
     total cpu time spent up to now is      358.3 secs

     Computing kpt #:   221  of   256
     total cpu time spent up to now is      359.8 secs

     Computing kpt #:   222  of   256
     total cpu time spent up to now is      361.1 secs

     Computing kpt #:   223  of   256
     total cpu time spent up to now is      362.6 secs

     Computing kpt #:   224  of   256
     total cpu time spent up to now is      364.1 secs

     Computing kpt #:   225  of   256
     total cpu time spent up to now is      365.6 secs

     Computing kpt #:   226  of   256
     total cpu time spent up to now is      367.3 secs

     Computing kpt #:   227  of   256
     total cpu time spent up to now is      369.0 secs

     Computing kpt #:   228  of   256
     total cpu time spent up to now is      370.5 secs

     Computing kpt #:   229  of   256
     total cpu time spent up to now is      372.0 secs

     Computing kpt #:   230  of   256
     total cpu time spent up to now is      373.4 secs

     Computing kpt #:   231  of   256
     total cpu time spent up to now is      374.8 secs

     Computing kpt #:   232  of   256
     total cpu time spent up to now is      376.3 secs

     Computing kpt #:   233  of   256
     total cpu time spent up to now is      377.8 secs

     Computing kpt #:   234  of   256
     total cpu time spent up to now is      379.6 secs

     Computing kpt #:   235  of   256
     total cpu time spent up to now is      381.0 secs

     Computing kpt #:   236  of   256
     total cpu time spent up to now is      382.5 secs

     Computing kpt #:   237  of   256
     total cpu time spent up to now is      384.0 secs

     Computing kpt #:   238  of   256
     total cpu time spent up to now is      385.4 secs

     Computing kpt #:   239  of   256
     total cpu time spent up to now is      386.8 secs

     Computing kpt #:   240  of   256
     total cpu time spent up to now is      388.4 secs

     Computing kpt #:   241  of   256
     total cpu time spent up to now is      389.9 secs

     Computing kpt #:   242  of   256
     total cpu time spent up to now is      391.4 secs

     Computing kpt #:   243  of   256
     total cpu time spent up to now is      393.1 secs

     Computing kpt #:   244  of   256
     total cpu time spent up to now is      394.6 secs

     Computing kpt #:   245  of   256
     total cpu time spent up to now is      396.1 secs

     Computing kpt #:   246  of   256
     total cpu time spent up to now is      397.5 secs

     Computing kpt #:   247  of   256
     total cpu time spent up to now is      399.0 secs

     Computing kpt #:   248  of   256
     total cpu time spent up to now is      400.4 secs

     Computing kpt #:   249  of   256
     total cpu time spent up to now is      401.8 secs

     Computing kpt #:   250  of   256
     total cpu time spent up to now is      403.2 secs

     Computing kpt #:   251  of   256
     total cpu time spent up to now is      404.6 secs

     Computing kpt #:   252  of   256
     total cpu time spent up to now is      406.0 secs

     Computing kpt #:   253  of   256
     total cpu time spent up to now is      407.5 secs

     Computing kpt #:   254  of   256
     total cpu time spent up to now is      409.0 secs

     Computing kpt #:   255  of   256
     total cpu time spent up to now is      410.5 secs

     Computing kpt #:   256  of   256
     total cpu time spent up to now is      412.2 secs

     ethr =  3.12E-09,  avg # of iterations = 35.0

     total cpu time spent up to now is      412.2 secs

     End of band structure calculation

          k = 0.0000 0.0000 0.0000 ( 48107 PWs)   bands (ev):

  -105.9997-104.6292 -66.4734 -66.4199 -66.4199 -64.9640 -64.9530 -64.9530
   -15.7956 -15.5708 -14.8535 -14.5973  -6.8625  -6.6434  -5.8182  -5.8182
    -4.5712  -4.5712  -4.2857  -4.2857  -3.9198  -3.7916  -3.5491  -3.3454
    -3.3454  -3.1852  -2.8815  -2.8815  -2.6292  -2.6292  -1.9854  -1.9854
    -0.8906  -0.8906   1.7664   1.8990   2.5045   2.6095   2.6844   2.7576

     occupation numbers
     1.0000   1.0000   1.0000   1.0000   1.0000   1.0000   1.0000   1.0000
     1.0000   1.0000   1.0000   1.0000   1.0000   1.0000   1.0000   1.0000
     1.0000   1.0000   1.0000   1.0000   1.0000   1.0000   1.0000   1.0000
     1.0000   1.0000   1.0000   1.0000   1.0000   1.0000   1.0000   1.0000
     0.0000   0.0000   0.0000   0.0000   0.0000   0.0000   0.0000   0.0000

          k = 0.0000 0.0722 0.0000 ( 48113 PWs)   bands (ev):

  -105.9997-104.6292 -66.4734 -66.4200 -66.4199 -64.9640 -64.9530 -64.9530
   -15.7653 -15.5400 -14.8368 -14.5800  -6.8313  -6.6128  -5.8574  -5.8148
    -4.6859  -4.5680  -4.3325  -4.3034  -3.9620  -3.7401  -3.4825  -3.4308
    -3.3969  -3.2508  -3.0397  -2.9185  -2.7043  -2.6360  -2.1614  -2.0112
    -1.0451  -0.9132   1.9118   2.0424   2.7035   2.7540   2.7919   2.8583

     occupation numbers
     1.0000   1.0000   1.0000   1.0000   1.0000   1.0000   1.0000   1.0000
     1.0000   1.0000   1.0000   1.0000   1.0000   1.0000   1.0000   1.0000
     1.0000   1.0000   1.0000   1.0000   1.0000   1.0000   1.0000   1.0000
     1.0000   1.0000   1.0000   1.0000   1.0000   1.0000   1.0000   1.0000
     0.0000   0.0000   0.0000   0.0000   0.0000   0.0000   0.0000   0.0000

          k = 0.0000 0.1443 0.0000 ( 48142 PWs)   bands (ev):

  -105.9997-104.6292 -66.4734 -66.4200 -66.4200 -64.9640 -64.9531 -64.9530
   -15.6763 -15.4496 -14.7891 -14.5308  -6.7432  -6.5273  -5.9628  -5.8057
    -4.9634  -4.5590  -4.5480  -4.3513  -4.0702  -3.8676  -3.6184  -3.5299
    -3.3515  -3.3258  -3.2978  -3.0292  -2.7973  -2.6704  -2.5795  -2.0724
    -1.3602  -0.9654   2.2368   2.3657   2.8212   2.9052   2.9553   3.1007

     occupation numbers
     1.0000   1.0000   1.0000   1.0000   1.0000   1.0000   1.0000   1.0000
     1.0000   1.0000   1.0000   1.0000   1.0000   1.0000   1.0000   1.0000
     1.0000   1.0000   1.0000   1.0000   1.0000   1.0000   1.0000   1.0000
     1.0000   1.0000   1.0000   1.0000   1.0000   1.0000   1.0000   1.0000
     0.0000   0.0000   0.0000   0.0000   0.0000   0.0000   0.0000   0.0000

          k = 0.0000 0.2165 0.0000 ( 48158 PWs)   bands (ev):

  -105.9997-104.6292 -66.4734 -66.4201 -66.4200 -64.9640 -64.9532 -64.9530
   -15.5350 -15.3059 -14.7176 -14.4569  -6.6221  -6.4123  -6.1095  -5.7933
    -5.3330  -5.0228  -4.5459  -4.4522  -4.4150  -4.1552  -3.7031  -3.5579
    -3.5287  -3.3490  -3.3009  -3.2047  -2.9638  -2.8581  -2.7481  -2.1382
    -1.5900  -1.0181   2.4335   2.6352   2.6707   2.7616   3.0045   3.1041

     occupation numbers
     1.0000   1.0000   1.0000   1.0000   1.0000   1.0000   1.0000   1.0000
     1.0000   1.0000   1.0000   1.0000   1.0000   1.0000   1.0000   1.0000
     1.0000   1.0000   1.0000   1.0000   1.0000   1.0000   1.0000   1.0000
     1.0000   1.0000   1.0000   1.0000   1.0000   1.0000   1.0000   1.0000
     0.0000   0.0000   0.0000   0.0000   0.0000   0.0000   0.0000   0.0000

          k = 0.0000 0.2887 0.0000 ( 48148 PWs)   bands (ev):

  -105.9997-104.6292 -66.4734 -66.4202 -66.4200 -64.9640 -64.9533 -64.9531
   -15.3528 -15.1202 -14.6346 -14.3709  -6.5559  -6.3568  -6.2785  -5.7812
    -5.7461  -5.5180  -4.9244  -4.5312  -4.4754  -4.2121  -3.9050  -3.8821
    -3.6020  -3.5094  -3.4210  -3.3136  -2.9596  -2.9108  -2.8603  -2.1909
    -1.6135  -1.0545   1.9544   2.1545   2.9324   3.0516   3.2258   3.3371

     occupation numbers
     1.0000   1.0000   1.0000   1.0000   1.0000   1.0000   1.0000   1.0000
     1.0000   1.0000   1.0000   1.0000   1.0000   1.0000   1.0000   1.0000
     1.0000   1.0000   1.0000   1.0000   1.0000   1.0000   1.0000   1.0000
     1.0000   1.0000   1.0000   1.0000   1.0000   1.0000   1.0000   1.0000
     0.0000   0.0000   0.0000   0.0000   0.0000   0.0000   0.0000   0.0000

          k = 0.0000 0.3608 0.0000 ( 48214 PWs)   bands (ev):

  -105.9997-104.6291 -66.4733 -66.4203 -66.4200 -64.9640 -64.9534 -64.9531
   -15.1472 -14.9102 -14.5570 -14.2907  -6.7873  -6.5885  -6.4075  -6.0259
    -5.7729  -5.6968  -5.1112  -4.5175  -4.5143  -4.3656  -4.2037  -4.0424
    -3.7658  -3.6874  -3.6464  -3.3286  -2.9813  -2.9722  -2.7972  -2.2275
    -1.4982  -1.0740   1.4912   1.7035   3.0594   3.2064   3.4812   3.6161

     occupation numbers
     1.0000   1.0000   1.0000   1.0000   1.0000   1.0000   1.0000   1.0000
     1.0000   1.0000   1.0000   1.0000   1.0000   1.0000   1.0000   1.0000
     1.0000   1.0000   1.0000   1.0000   1.0000   1.0000   1.0000   1.0000
     1.0000   1.0000   1.0000   1.0000   1.0000   1.0000   1.0000   1.0000
     0.0000   0.0000   0.0000   0.0000   0.0000   0.0000   0.0000   0.0000

          k = 0.0000 0.4330 0.0000 ( 48212 PWs)   bands (ev):

  -105.9997-104.6291 -66.4733 -66.4204 -66.4200 -64.9640 -64.9535 -64.9531
   -14.9427 -14.7005 -14.5049 -14.2369  -7.1849  -6.9896  -6.5081  -6.2106
    -5.7697  -5.6310  -5.0120  -4.6209  -4.5213  -4.5070  -4.2578  -4.1672
    -4.0278  -3.8514  -3.7895  -3.3396  -3.0850  -3.0515  -2.6523  -2.2509
    -1.3578  -1.0828   1.1370   1.3664   3.0535   3.2082   3.5000   3.6682

     occupation numbers
     1.0000   1.0000   1.0000   1.0000   1.0000   1.0000   1.0000   1.0000
     1.0000   1.0000   1.0000   1.0000   1.0000   1.0000   1.0000   1.0000
     1.0000   1.0000   1.0000   1.0000   1.0000   1.0000   1.0000   1.0000
     1.0000   1.0000   1.0000   1.0000   1.0000   1.0000   1.0000   1.0000
     0.0000   0.0000   0.0000   0.0000   0.0000   0.0000   0.0000   0.0000

          k = 0.0000 0.5052 0.0000 ( 48214 PWs)   bands (ev):

  -105.9997-104.6291 -66.4733 -66.4204 -66.4201 -64.9640 -64.9535 -64.9531
   -14.7729 -14.5262 -14.4934 -14.2249  -7.4827  -7.2883  -6.5816  -6.3569
    -5.7700  -5.5820  -4.7878  -4.6840  -4.5011  -4.5009  -4.2995  -4.2650
    -4.2459  -4.0063  -3.8941  -3.3462  -3.1536  -3.1299  -2.5638  -2.2639
    -1.2599  -1.0862   0.9217   1.1689   2.9932   3.1411   3.5356   3.7179

     occupation numbers
     1.0000   1.0000   1.0000   1.0000   1.0000   1.0000   1.0000   1.0000
     1.0000   1.0000   1.0000   1.0000   1.0000   1.0000   1.0000   1.0000
     1.0000   1.0000   1.0000   1.0000   1.0000   1.0000   1.0000   1.0000
     1.0000   1.0000   1.0000   1.0000   1.0000   1.0000   1.0000   1.0000
     0.0000   0.0000   0.0000   0.0000   0.0000   0.0000   0.0000   0.0000

          k = 0.0000-0.5774 0.0000 ( 48254 PWs)   bands (ev):

  -105.9997-104.6291 -66.4733 -66.4204 -66.4201 -64.9639 -64.9535 -64.9531
   -14.6955 -14.5051 -14.4475 -14.2360  -7.5898  -7.3954  -6.6085  -6.4122
    -5.7705  -5.5803  -4.6553  -4.6068  -4.4990  -4.4848  -4.4346  -4.3284
    -4.2726  -4.0687  -3.9432  -3.3485  -3.1774  -3.1647  -2.5354  -2.2680
    -1.2267  -1.0870   0.8508   1.1062   2.9590   3.1033   3.6792   3.8304

     occupation numbers
     1.0000   1.0000   1.0000   1.0000   1.0000   1.0000   1.0000   1.0000
     1.0000   1.0000   1.0000   1.0000   1.0000   1.0000   1.0000   1.0000
     1.0000   1.0000   1.0000   1.0000   1.0000   1.0000   1.0000   1.0000
     1.0000   1.0000   1.0000   1.0000   1.0000   1.0000   1.0000   1.0000
     0.0000   0.0000   0.0000   0.0000   0.0000   0.0000   0.0000   0.0000

          k = 0.0000-0.5052 0.0000 ( 48214 PWs)   bands (ev):

  -105.9997-104.6291 -66.4733 -66.4204 -66.4201 -64.9640 -64.9535 -64.9531
   -14.7729 -14.5262 -14.4934 -14.2249  -7.4827  -7.2883  -6.5816  -6.3569
    -5.7700  -5.5820  -4.7878  -4.6840  -4.5011  -4.5009  -4.2995  -4.2650
    -4.2459  -4.0063  -3.8941  -3.3462  -3.1536  -3.1299  -2.5638  -2.2639
    -1.2599  -1.0862   0.9217   1.1689   2.9932   3.1411   3.5356   3.7179

     occupation numbers
     1.0000   1.0000   1.0000   1.0000   1.0000   1.0000   1.0000   1.0000
     1.0000   1.0000   1.0000   1.0000   1.0000   1.0000   1.0000   1.0000
     1.0000   1.0000   1.0000   1.0000   1.0000   1.0000   1.0000   1.0000
     1.0000   1.0000   1.0000   1.0000   1.0000   1.0000   1.0000   1.0000
     0.0000   0.0000   0.0000   0.0000   0.0000   0.0000   0.0000   0.0000

          k = 0.0000-0.4330 0.0000 ( 48212 PWs)   bands (ev):

  -105.9997-104.6291 -66.4733 -66.4204 -66.4200 -64.9640 -64.9535 -64.9531
   -14.9427 -14.7005 -14.5049 -14.2369  -7.1849  -6.9896  -6.5081  -6.2106
    -5.7697  -5.6310  -5.0120  -4.6209  -4.5213  -4.5070  -4.2578  -4.1672
    -4.0278  -3.8514  -3.7895  -3.3396  -3.0850  -3.0515  -2.6523  -2.2509
    -1.3578  -1.0828   1.1370   1.3664   3.0535   3.2082   3.5000   3.6682

     occupation numbers
     1.0000   1.0000   1.0000   1.0000   1.0000   1.0000   1.0000   1.0000
     1.0000   1.0000   1.0000   1.0000   1.0000   1.0000   1.0000   1.0000
     1.0000   1.0000   1.0000   1.0000   1.0000   1.0000   1.0000   1.0000
     1.0000   1.0000   1.0000   1.0000   1.0000   1.0000   1.0000   1.0000
     0.0000   0.0000   0.0000   0.0000   0.0000   0.0000   0.0000   0.0000

          k = 0.0000-0.3608 0.0000 ( 48214 PWs)   bands (ev):

  -105.9997-104.6291 -66.4733 -66.4203 -66.4200 -64.9640 -64.9534 -64.9531
   -15.1472 -14.9102 -14.5570 -14.2907  -6.7873  -6.5885  -6.4075  -6.0259
    -5.7729  -5.6968  -5.1112  -4.5175  -4.5143  -4.3656  -4.2037  -4.0424
    -3.7658  -3.6874  -3.6464  -3.3286  -2.9813  -2.9722  -2.7972  -2.2275
    -1.4982  -1.0740   1.4912   1.7035   3.0594   3.2064   3.4812   3.6161

     occupation numbers
     1.0000   1.0000   1.0000   1.0000   1.0000   1.0000   1.0000   1.0000
     1.0000   1.0000   1.0000   1.0000   1.0000   1.0000   1.0000   1.0000
     1.0000   1.0000   1.0000   1.0000   1.0000   1.0000   1.0000   1.0000
[...]
    -3.9943  -3.9565  -3.6759  -3.2740  -3.1229  -2.9718  -2.7861  -2.4890
    -1.4984  -1.2110   1.6208   1.8584   3.4108   3.5664   3.9406   4.0839

     occupation numbers
     1.0000   1.0000   1.0000   1.0000   1.0000   1.0000   1.0000   1.0000
     1.0000   1.0000   1.0000   1.0000   1.0000   1.0000   1.0000   1.0000
     1.0000   1.0000   1.0000   1.0000   1.0000   1.0000   1.0000   1.0000
     1.0000   1.0000   1.0000   1.0000   1.0000   1.0000   1.0000   1.0000
     0.0000   0.0000   0.0000   0.0000   0.0000   0.0000   0.0000   0.0000

          k =-0.1250-0.3608 0.0000 ( 48162 PWs)   bands (ev):

  -105.9997-104.6291 -66.4733 -66.4203 -66.4201 -64.9640 -64.9534 -64.9531
   -15.0835 -14.8449 -14.5314 -14.2643  -6.7551  -6.5519  -6.4049  -6.0277
    -5.8247  -5.6130  -5.1869  -5.0882  -4.7248  -4.3092  -4.3065  -4.0839
    -3.8077  -3.7596  -3.5455  -3.3052  -3.0328  -2.9001  -2.8412  -2.5088
    -1.5390  -1.2560   1.9665   2.1986   3.2720   3.4202   3.6688   3.7769

     occupation numbers
     1.0000   1.0000   1.0000   1.0000   1.0000   1.0000   1.0000   1.0000
     1.0000   1.0000   1.0000   1.0000   1.0000   1.0000   1.0000   1.0000
     1.0000   1.0000   1.0000   1.0000   1.0000   1.0000   1.0000   1.0000
     1.0000   1.0000   1.0000   1.0000   1.0000   1.0000   1.0000   1.0000
     0.0000   0.0000   0.0000   0.0000   0.0000   0.0000   0.0000   0.0000

          k =-0.1250-0.2887 0.0000 ( 48141 PWs)   bands (ev):

  -105.9997-104.6291 -66.4733 -66.4202 -66.4200 -64.9640 -64.9533 -64.9531
   -15.2797 -15.0456 -14.6024 -14.3377  -6.5380  -6.3384  -6.2906  -5.8456
    -5.7656  -5.4285  -5.0892  -4.9819  -4.6527  -4.1077  -4.0967  -3.9681
    -3.6721  -3.5186  -3.4170  -3.3217  -2.9478  -2.8433  -2.8015  -2.5579
    -1.5005  -1.3306   2.3682   2.6007   3.1448   3.2694   3.2708   3.3710

     occupation numbers
     1.0000   1.0000   1.0000   1.0000   1.0000   1.0000   1.0000   1.0000
     1.0000   1.0000   1.0000   1.0000   1.0000   1.0000   1.0000   1.0000
     1.0000   1.0000   1.0000   1.0000   1.0000   1.0000   1.0000   1.0000
     1.0000   1.0000   1.0000   1.0000   1.0000   1.0000   1.0000   1.0000
     0.0000   0.0000   0.0000   0.0000   0.0000   0.0000   0.0000   0.0000

          k =-0.1250-0.2165 0.0000 ( 48125 PWs)   bands (ev):

  -105.9997-104.6292 -66.4734 -66.4201 -66.4200 -64.9640 -64.9532 -64.9531
   -15.4544 -15.2238 -14.6788 -14.4167  -6.5656  -6.3601  -6.1623  -5.8222
    -5.4513  -5.0532  -4.7937  -4.7348  -4.5705  -4.1048  -3.8902  -3.6551
    -3.5620  -3.3904  -3.3423  -3.3226  -2.8830  -2.7988  -2.6577  -2.5158
    -1.4460  -1.2976   2.6574   2.8775   2.9090   3.0168   3.0421   3.1464

     occupation numbers
     1.0000   1.0000   1.0000   1.0000   1.0000   1.0000   1.0000   1.0000
     1.0000   1.0000   1.0000   1.0000   1.0000   1.0000   1.0000   1.0000
     1.0000   1.0000   1.0000   1.0000   1.0000   1.0000   1.0000   1.0000
     1.0000   1.0000   1.0000   1.0000   1.0000   1.0000   1.0000   1.0000
     0.0000   0.0000   0.0000   0.0000   0.0000   0.0000   0.0000   0.0000

          k =-0.1250-0.1443 0.0000 ( 48136 PWs)   bands (ev):

  -105.9997-104.6292 -66.4734 -66.4201 -66.4200 -64.9640 -64.9531 -64.9530
   -15.5904 -15.3623 -14.7449 -14.4851  -6.6651  -6.4526  -6.0484  -5.8057
    -5.1760  -4.7529  -4.5700  -4.5038  -4.2310  -4.1060  -3.6755  -3.5457
    -3.4542  -3.3142  -3.3016  -3.2428  -2.8358  -2.7293  -2.6795  -2.2254
    -1.4572  -1.0860   2.4713   2.6064   2.8665   2.9530   2.9867   3.0907

     occupation numbers
     1.0000   1.0000   1.0000   1.0000   1.0000   1.0000   1.0000   1.0000
     1.0000   1.0000   1.0000   1.0000   1.0000   1.0000   1.0000   1.0000
     1.0000   1.0000   1.0000   1.0000   1.0000   1.0000   1.0000   1.0000
     1.0000   1.0000   1.0000   1.0000   1.0000   1.0000   1.0000   1.0000
     0.0000   0.0000   0.0000   0.0000   0.0000   0.0000   0.0000   0.0000

          k =-0.0625-0.0361 0.0000 ( 48113 PWs)   bands (ev):

  -105.9997-104.6292 -66.4734 -66.4200 -66.4199 -64.9640 -64.9530 -64.9530
   -15.7653 -15.5400 -14.8368 -14.5800  -6.8313  -6.6128  -5.8574  -5.8148
    -4.6859  -4.5680  -4.3325  -4.3034  -3.9620  -3.7401  -3.4825  -3.4308
    -3.3969  -3.2508  -3.0397  -2.9185  -2.7043  -2.6360  -2.1614  -2.0112
    -1.0451  -0.9132   1.9118   2.0424   2.7035   2.7540   2.7919   2.8583

     occupation numbers
     1.0000   1.0000   1.0000   1.0000   1.0000   1.0000   1.0000   1.0000
     1.0000   1.0000   1.0000   1.0000   1.0000   1.0000   1.0000   1.0000
     1.0000   1.0000   1.0000   1.0000   1.0000   1.0000   1.0000   1.0000
     1.0000   1.0000   1.0000   1.0000   1.0000   1.0000   1.0000   1.0000
     0.0000   0.0000   0.0000   0.0000   0.0000   0.0000   0.0000   0.0000

          k =-0.0625 0.0361 0.0000 ( 48113 PWs)   bands (ev):

  -105.9997-104.6292 -66.4734 -66.4200 -66.4199 -64.9640 -64.9530 -64.9530
   -15.7653 -15.5400 -14.8368 -14.5800  -6.8313  -6.6128  -5.8574  -5.8148
    -4.6859  -4.5680  -4.3325  -4.3034  -3.9620  -3.7401  -3.4825  -3.4308
    -3.3969  -3.2508  -3.0397  -2.9185  -2.7043  -2.6360  -2.1614  -2.0112
    -1.0451  -0.9132   1.9118   2.0424   2.7035   2.7540   2.7919   2.8583

     occupation numbers
     1.0000   1.0000   1.0000   1.0000   1.0000   1.0000   1.0000   1.0000
     1.0000   1.0000   1.0000   1.0000   1.0000   1.0000   1.0000   1.0000
     1.0000   1.0000   1.0000   1.0000   1.0000   1.0000   1.0000   1.0000
     1.0000   1.0000   1.0000   1.0000   1.0000   1.0000   1.0000   1.0000
     0.0000   0.0000   0.0000   0.0000   0.0000   0.0000   0.0000   0.0000

          k =-0.0625 0.1083 0.0000 ( 48119 PWs)   bands (ev):

  -105.9997-104.6292 -66.4734 -66.4200 -66.4200 -64.9640 -64.9531 -64.9530
   -15.7056 -15.4794 -14.8046 -14.5468  -6.7715  -6.5547  -5.9279  -5.8105
    -4.8741  -4.5664  -4.4107  -4.3924  -4.0366  -3.7129  -3.6528  -3.5083
    -3.3741  -3.2878  -3.2475  -3.0248  -2.7752  -2.6634  -2.3870  -2.1038
    -1.2404  -0.9857   2.1455   2.2737   2.7898   2.8715   3.1088   3.1642

     occupation numbers
     1.0000   1.0000   1.0000   1.0000   1.0000   1.0000   1.0000   1.0000
     1.0000   1.0000   1.0000   1.0000   1.0000   1.0000   1.0000   1.0000
     1.0000   1.0000   1.0000   1.0000   1.0000   1.0000   1.0000   1.0000
     1.0000   1.0000   1.0000   1.0000   1.0000   1.0000   1.0000   1.0000
     0.0000   0.0000   0.0000   0.0000   0.0000   0.0000   0.0000   0.0000

          k =-0.0625 0.1804 0.0000 ( 48136 PWs)   bands (ev):

  -105.9997-104.6292 -66.4734 -66.4201 -66.4200 -64.9640 -64.9531 -64.9530
   -15.5904 -15.3623 -14.7449 -14.4851  -6.6651  -6.4526  -6.0484  -5.8057
    -5.1760  -4.7529  -4.5700  -4.5038  -4.2310  -4.1060  -3.6755  -3.5457
    -3.4542  -3.3142  -3.3016  -3.2428  -2.8358  -2.7293  -2.6795  -2.2254
    -1.4572  -1.0860   2.4713   2.6064   2.8665   2.9530   2.9867   3.0907

     occupation numbers
     1.0000   1.0000   1.0000   1.0000   1.0000   1.0000   1.0000   1.0000
     1.0000   1.0000   1.0000   1.0000   1.0000   1.0000   1.0000   1.0000
     1.0000   1.0000   1.0000   1.0000   1.0000   1.0000   1.0000   1.0000
     1.0000   1.0000   1.0000   1.0000   1.0000   1.0000   1.0000   1.0000
     0.0000   0.0000   0.0000   0.0000   0.0000   0.0000   0.0000   0.0000

          k =-0.0625 0.2526 0.0000 ( 48148 PWs)   bands (ev):

  -105.9997-104.6292 -66.4734 -66.4201 -66.4200 -64.9640 -64.9532 -64.9531
   -15.4284 -15.1974 -14.6673 -14.4048  -6.5580  -6.3543  -6.1987  -5.8043
    -5.5508  -5.2694  -4.7736  -4.6073  -4.5635  -4.1389  -3.8653  -3.7246
    -3.5727  -3.4021  -3.3680  -3.3100  -2.8917  -2.8911  -2.8106  -2.2925
    -1.5726  -1.1413   2.3384   2.5474   2.8725   2.9762   3.1181   3.2260

     occupation numbers
     1.0000   1.0000   1.0000   1.0000   1.0000   1.0000   1.0000   1.0000
     1.0000   1.0000   1.0000   1.0000   1.0000   1.0000   1.0000   1.0000
     1.0000   1.0000   1.0000   1.0000   1.0000   1.0000   1.0000   1.0000
     1.0000   1.0000   1.0000   1.0000   1.0000   1.0000   1.0000   1.0000
     0.0000   0.0000   0.0000   0.0000   0.0000   0.0000   0.0000   0.0000

          k =-0.0625 0.3248 0.0000 ( 48173 PWs)   bands (ev):

  -105.9997-104.6291 -66.4733 -66.4202 -66.4200 -64.9640 -64.9533 -64.9531
   -15.2340 -14.9990 -14.5862 -14.3209  -6.6188  -6.4197  -6.3498  -5.9076
    -5.8048  -5.6198  -5.0856  -4.6961  -4.5770  -4.1703  -4.1035  -4.0509
    -3.6740  -3.6219  -3.5156  -3.3204  -2.9596  -2.8968  -2.8514  -2.3250
    -1.5420  -1.1558   1.8562   2.0699   3.1010   3.2351   3.3894   3.5034

     occupation numbers
     1.0000   1.0000   1.0000   1.0000   1.0000   1.0000   1.0000   1.0000
     1.0000   1.0000   1.0000   1.0000   1.0000   1.0000   1.0000   1.0000
     1.0000   1.0000   1.0000   1.0000   1.0000   1.0000   1.0000   1.0000
     1.0000   1.0000   1.0000   1.0000   1.0000   1.0000   1.0000   1.0000
     0.0000   0.0000   0.0000   0.0000   0.0000   0.0000   0.0000   0.0000

          k =-0.0625 0.3969 0.0000 ( 48195 PWs)   bands (ev):

  -105.9997-104.6291 -66.4733 -66.4203 -66.4200 -64.9640 -64.9534 -64.9531
   -15.0280 -14.7880 -14.5204 -14.2529  -6.9714  -6.7739  -6.4564  -6.1169
    -5.7831  -5.6567  -5.0958  -4.7562  -4.5840  -4.4676  -4.2222  -4.1575
    -3.8760  -3.8174  -3.6740  -3.3200  -3.0535  -2.9788  -2.7238  -2.3417
    -1.4363  -1.1502   1.4433   1.6682   3.1835   3.3380   3.6112   3.7604

     occupation numbers
     1.0000   1.0000   1.0000   1.0000   1.0000   1.0000   1.0000   1.0000
     1.0000   1.0000   1.0000   1.0000   1.0000   1.0000   1.0000   1.0000
     1.0000   1.0000   1.0000   1.0000   1.0000   1.0000   1.0000   1.0000
     1.0000   1.0000   1.0000   1.0000   1.0000   1.0000   1.0000   1.0000
     0.0000   0.0000   0.0000   0.0000   0.0000   0.0000   0.0000   0.0000

          k =-0.0625 0.4691 0.0000 ( 48179 PWs)   bands (ev):

  -105.9997-104.6291 -66.4733 -66.4204 -66.4201 -64.9640 -64.9535 -64.9531
   -14.8385 -14.5934 -14.4884 -14.2200  -7.3295  -7.1347  -6.5414  -6.2808
    -5.7758  -5.5881  -4.9216  -4.7792  -4.6578  -4.5719  -4.3735  -4.1585
    -4.1031  -3.9726  -3.7977  -3.3096  -3.1372  -3.0630  -2.6161  -2.3578
    -1.3288  -1.1483   1.1535   1.3933   3.2010   3.3559   3.5990   3.7735

     occupation numbers
     1.0000   1.0000   1.0000   1.0000   1.0000   1.0000   1.0000   1.0000
     1.0000   1.0000   1.0000   1.0000   1.0000   1.0000   1.0000   1.0000
     1.0000   1.0000   1.0000   1.0000   1.0000   1.0000   1.0000   1.0000
     1.0000   1.0000   1.0000   1.0000   1.0000   1.0000   1.0000   1.0000
     0.0000   0.0000   0.0000   0.0000   0.0000   0.0000   0.0000   0.0000

          k =-0.0625-0.6134 0.0000 ( 48239 PWs)   bands (ev):

  -105.9997-104.6291 -66.4733 -66.4204 -66.4201 -64.9639 -64.9535 -64.9531
   -14.7065 -14.4951 -14.4582 -14.2264  -7.5343  -7.3401  -6.5891  -6.3790
    -5.7705  -5.5731  -4.7833  -4.7389  -4.6791  -4.5333  -4.4611  -4.2985
    -4.1817  -4.0462  -3.8920  -3.2982  -3.1724  -3.1365  -2.5511  -2.3777
    -1.2488  -1.1687   1.0081   1.2603   3.1800   3.3293   3.6930   3.8837

     occupation numbers
     1.0000   1.0000   1.0000   1.0000   1.0000   1.0000   1.0000   1.0000
     1.0000   1.0000   1.0000   1.0000   1.0000   1.0000   1.0000   1.0000
     1.0000   1.0000   1.0000   1.0000   1.0000   1.0000   1.0000   1.0000
     1.0000   1.0000   1.0000   1.0000   1.0000   1.0000   1.0000   1.0000
     0.0000   0.0000   0.0000   0.0000   0.0000   0.0000   0.0000   0.0000

          k =-0.0625-0.5413 0.0000 ( 48239 PWs)   bands (ev):

  -105.9997-104.6291 -66.4733 -66.4204 -66.4201 -64.9639 -64.9535 -64.9531
   -14.7065 -14.4951 -14.4582 -14.2264  -7.5343  -7.3401  -6.5891  -6.3790
    -5.7705  -5.5731  -4.7833  -4.7389  -4.6791  -4.5333  -4.4611  -4.2985
    -4.1817  -4.0462  -3.8920  -3.2982  -3.1724  -3.1365  -2.5511  -2.3777
    -1.2488  -1.1687   1.0081   1.2603   3.1800   3.3293   3.6930   3.8837

     occupation numbers
     1.0000   1.0000   1.0000   1.0000   1.0000   1.0000   1.0000   1.0000
     1.0000   1.0000   1.0000   1.0000   1.0000   1.0000   1.0000   1.0000
     1.0000   1.0000   1.0000   1.0000   1.0000   1.0000   1.0000   1.0000
     1.0000   1.0000   1.0000   1.0000   1.0000   1.0000   1.0000   1.0000
     0.0000   0.0000   0.0000   0.0000   0.0000   0.0000   0.0000   0.0000

          k =-0.0625-0.4691 0.0000 ( 48179 PWs)   bands (ev):

  -105.9997-104.6291 -66.4733 -66.4204 -66.4201 -64.9640 -64.9535 -64.9531
   -14.8385 -14.5934 -14.4884 -14.2200  -7.3295  -7.1347  -6.5414  -6.2808
    -5.7758  -5.5881  -4.9216  -4.7792  -4.6578  -4.5719  -4.3735  -4.1585
    -4.1031  -3.9726  -3.7977  -3.3096  -3.1372  -3.0630  -2.6161  -2.3578
    -1.3288  -1.1483   1.1535   1.3933   3.2010   3.3559   3.5990   3.7735

     occupation numbers
     1.0000   1.0000   1.0000   1.0000   1.0000   1.0000   1.0000   1.0000
     1.0000   1.0000   1.0000   1.0000   1.0000   1.0000   1.0000   1.0000
     1.0000   1.0000   1.0000   1.0000   1.0000   1.0000   1.0000   1.0000
     1.0000   1.0000   1.0000   1.0000   1.0000   1.0000   1.0000   1.0000
     0.0000   0.0000   0.0000   0.0000   0.0000   0.0000   0.0000   0.0000

          k =-0.0625-0.3969 0.0000 ( 48195 PWs)   bands (ev):

  -105.9997-104.6291 -66.4733 -66.4203 -66.4200 -64.9640 -64.9534 -64.9531
   -15.0280 -14.7880 -14.5204 -14.2529  -6.9714  -6.7739  -6.4564  -6.1169
    -5.7831  -5.6567  -5.0958  -4.7562  -4.5840  -4.4676  -4.2222  -4.1575
    -3.8760  -3.8174  -3.6740  -3.3200  -3.0535  -2.9788  -2.7238  -2.3417
    -1.4363  -1.1502   1.4433   1.6682   3.1835   3.3380   3.6112   3.7604

     occupation numbers
     1.0000   1.0000   1.0000   1.0000   1.0000   1.0000   1.0000   1.0000
     1.0000   1.0000   1.0000   1.0000   1.0000   1.0000   1.0000   1.0000
     1.0000   1.0000   1.0000   1.0000   1.0000   1.0000   1.0000   1.0000
     1.0000   1.0000   1.0000   1.0000   1.0000   1.0000   1.0000   1.0000
     0.0000   0.0000   0.0000   0.0000   0.0000   0.0000   0.0000   0.0000

          k =-0.0625-0.3248 0.0000 ( 48173 PWs)   bands (ev):

  -105.9997-104.6291 -66.4733 -66.4202 -66.4200 -64.9640 -64.9533 -64.9531
   -15.2340 -14.9990 -14.5862 -14.3209  -6.6188  -6.4197  -6.3498  -5.9076
    -5.8048  -5.6198  -5.0856  -4.6961  -4.5770  -4.1703  -4.1035  -4.0509
    -3.6740  -3.6219  -3.5156  -3.3204  -2.9596  -2.8968  -2.8514  -2.3250
    -1.5420  -1.1558   1.8562   2.0699   3.1010   3.2351   3.3894   3.5034

     occupation numbers
     1.0000   1.0000   1.0000   1.0000   1.0000   1.0000   1.0000   1.0000
     1.0000   1.0000   1.0000   1.0000   1.0000   1.0000   1.0000   1.0000
     1.0000   1.0000   1.0000   1.0000   1.0000   1.0000   1.0000   1.0000
     1.0000   1.0000   1.0000   1.0000   1.0000   1.0000   1.0000   1.0000
     0.0000   0.0000   0.0000   0.0000   0.0000   0.0000   0.0000   0.0000

          k =-0.0625-0.2526 0.0000 ( 48148 PWs)   bands (ev):

  -105.9997-104.6292 -66.4734 -66.4201 -66.4200 -64.9640 -64.9532 -64.9531
   -15.4284 -15.1974 -14.6673 -14.4048  -6.5580  -6.3543  -6.1987  -5.8043
    -5.5508  -5.2694  -4.7736  -4.6073  -4.5635  -4.1389  -3.8653  -3.7246
    -3.5727  -3.4021  -3.3680  -3.3100  -2.8917  -2.8911  -2.8106  -2.2925
    -1.5726  -1.1413   2.3384   2.5474   2.8725   2.9762   3.1181   3.2260

     occupation numbers
     1.0000   1.0000   1.0000   1.0000   1.0000   1.0000   1.0000   1.0000
     1.0000   1.0000   1.0000   1.0000   1.0000   1.0000   1.0000   1.0000
     1.0000   1.0000   1.0000   1.0000   1.0000   1.0000   1.0000   1.0000
     1.0000   1.0000   1.0000   1.0000   1.0000   1.0000   1.0000   1.0000
     0.0000   0.0000   0.0000   0.0000   0.0000   0.0000   0.0000   0.0000

          k =-0.0625-0.1804 0.0000 ( 48136 PWs)   bands (ev):

  -105.9997-104.6292 -66.4734 -66.4201 -66.4200 -64.9640 -64.9531 -64.9530
   -15.5904 -15.3623 -14.7449 -14.4851  -6.6651  -6.4526  -6.0484  -5.8057
    -5.1760  -4.7529  -4.5700  -4.5038  -4.2310  -4.1060  -3.6755  -3.5457
    -3.4542  -3.3142  -3.3016  -3.2428  -2.8358  -2.7293  -2.6795  -2.2254
    -1.4572  -1.0860   2.4713   2.6064   2.8665   2.9530   2.9867   3.0907

     occupation numbers
     1.0000   1.0000   1.0000   1.0000   1.0000   1.0000   1.0000   1.0000
     1.0000   1.0000   1.0000   1.0000   1.0000   1.0000   1.0000   1.0000
     1.0000   1.0000   1.0000   1.0000   1.0000   1.0000   1.0000   1.0000
     1.0000   1.0000   1.0000   1.0000   1.0000   1.0000   1.0000   1.0000
     0.0000   0.0000   0.0000   0.0000   0.0000   0.0000   0.0000   0.0000

          k =-0.0625-0.1083 0.0000 ( 48119 PWs)   bands (ev):

  -105.9997-104.6292 -66.4734 -66.4200 -66.4200 -64.9640 -64.9531 -64.9530
   -15.7056 -15.4794 -14.8046 -14.5468  -6.7715  -6.5547  -5.9279  -5.8105
    -4.8741  -4.5664  -4.4107  -4.3924  -4.0366  -3.7129  -3.6528  -3.5083
    -3.3741  -3.2878  -3.2475  -3.0248  -2.7752  -2.6634  -2.3870  -2.1038
    -1.2404  -0.9857   2.1455   2.2737   2.7898   2.8715   3.1088   3.1642

     occupation numbers
     1.0000   1.0000   1.0000   1.0000   1.0000   1.0000   1.0000   1.0000
     1.0000   1.0000   1.0000   1.0000   1.0000   1.0000   1.0000   1.0000
     1.0000   1.0000   1.0000   1.0000   1.0000   1.0000   1.0000   1.0000
     1.0000   1.0000   1.0000   1.0000   1.0000   1.0000   1.0000   1.0000
     0.0000   0.0000   0.0000   0.0000   0.0000   0.0000   0.0000   0.0000

     the Fermi energy is    -1.7822 ev
     (compare with:    -1.7810 eV, computed in scf)

     Writing all to output data dir ./tmp/nnso.save/

     init_run     :      0.90s CPU      0.97s WALL (       1 calls)
     electrons    :    407.87s CPU    411.07s WALL (       1 calls)

     Called by init_run:
     wfcinit      :      0.00s CPU      0.01s WALL (       1 calls)
     wfcinit:atom :      0.36s CPU      0.39s WALL (     256 calls)
     wfcinit:wfcr :     19.05s CPU     19.14s WALL (     256 calls)
     potinit      :      0.08s CPU      0.11s WALL (       1 calls)
     hinit0       :      0.67s CPU      0.70s WALL (       1 calls)

     Called by electrons:
     c_bands      :    407.87s CPU    411.06s WALL (       1 calls)
     v_of_rho     :      0.07s CPU      0.07s WALL (       1 calls)
     v_h          :      0.00s CPU      0.00s WALL (       1 calls)
     v_xc         :      0.07s CPU      0.07s WALL (       1 calls)

     Called by c_bands:
     init_us_2    :      0.20s CPU      0.23s WALL (     256 calls)
     init_us_2:cp :      0.20s CPU      0.23s WALL (     256 calls)
     cegterg      :    379.28s CPU    380.45s WALL (     530 calls)

     Called by sum_band:

     Called by *egterg:
     cdiaghg      :     17.64s CPU     17.67s WALL (    9210 calls)
     cegterg:over :     29.42s CPU     29.47s WALL (    8954 calls)
     cegterg:upda :     19.98s CPU     20.01s WALL (    8954 calls)
     cegterg:last :     26.40s CPU     26.42s WALL (    4175 calls)
     h_psi        :    291.76s CPU    292.89s WALL (    9740 calls)
     g_psi        :      2.78s CPU      2.79s WALL (    8954 calls)

     Called by h_psi:
     h_psi:calbec :     10.93s CPU     10.95s WALL (    9740 calls)
     vloc_psi     :    266.53s CPU    267.61s WALL (    9740 calls)
     add_vuspsi   :     10.84s CPU     10.88s WALL (    9740 calls)

     General routines
     calbec       :     10.90s CPU     10.93s WALL (    9740 calls)
     fft          :      0.10s CPU      0.12s WALL (      27 calls)
     ffts         :      0.00s CPU      0.00s WALL (       4 calls)
     fftw         :    208.05s CPU    208.85s WALL (  676368 calls)
     interpolate  :      0.01s CPU      0.01s WALL (       4 calls)
     davcio       :      0.71s CPU      2.72s WALL (     512 calls)

     Parallel routines

     PWSCF        :   6m56.79s CPU   7m 7.99s WALL


   This run was terminated on:  15:53:44  27Jun2023

=------------------------------------------------------------------------------=
   JOB DONE.
=------------------------------------------------------------------------------=
