
     Program PWSCF v.7.1 starts on 26Jun2023 at 23:25:18 

     This program is part of the open-source Quantum ESPRESSO suite
     for quantum simulation of materials; please cite
         "P. Giannozzi et al., J. Phys.:Condens. Matter 21 395502 (2009);
         "P. Giannozzi et al., J. Phys.:Condens. Matter 29 465901 (2017);
         "P. Giannozzi et al., J. Chem. Phys. 152 154105 (2020);
          URL http://www.quantum-espresso.org", 
     in publications or presentations arising from this work. More details at
     http://www.quantum-espresso.org/quote

     Parallel version (MPI & OpenMP), running on      20 processor cores
     Number of MPI processes:                20
     Threads/MPI process:                     1

     MPI processes distributed on     1 nodes
     149186 MiB available memory on the printing compute node when the environment starts
 
     Reading input from input/nscf.in

     Current dimensions of program PWSCF are:
     Max number of different atomic species (ntypx) = 10
     Max number of k-points (npk) =  40000
     Max angular momentum in pseudopotentials (lmaxx) =  4

     Atomic positions and unit cell read from directory:
     ./tmp/nnso.save/
     Atomic positions from file used, from input discarded
 

     Fixed quantization axis for GGA:     0.000000    0.000000    1.000000
     Message from routine setup:
     using ibrav=0 with symmetry is DISCOURAGED, use correct ibrav instead
 
     R & G space division:  proc/nbgrp/npool/nimage =      20
     Subspace diagonalization in iterative solution of the eigenvalue problem:
     a serial algorithm will be used

 
     Parallelization info
     --------------------
     sticks:   dense  smooth     PW     G-vecs:    dense   smooth      PW
     Min          93      89     24                20481    19267    2770
     Max          94      90     25                20502    19300    2795
     Sum        1879    1789    499               409943   385631   55807
 
     Using Slab Decomposition
 


     bravais-lattice index     =            0
     lattice parameter (alat)  =       7.3605  a.u.
     unit-cell volume          =    2170.2486 (a.u.)^3
     number of atoms/cell      =            3
     number of atomic types    =            2
     number of electrons       =        32.00
     number of Kohn-Sham states=           40
     kinetic-energy cutoff     =     120.0000  Ry
     charge density cutoff     =     500.0000  Ry
     Exchange-correlation= PBE
                           (   1   4   3   4   0   0   0)
     Noncollinear calculation without spin-orbit


     celldm(1)=   7.360481  celldm(2)=   0.000000  celldm(3)=   0.000000
     celldm(4)=   0.000000  celldm(5)=   0.000000  celldm(6)=   0.000000

     crystal axes: (cart. coord. in units of alat)
               a(1) = (   1.000000   0.000000   0.000000 )  
               a(2) = (  -0.500000   0.866025   0.000000 )  
               a(3) = (   0.000000   0.000000   6.284350 )  

     reciprocal axes: (cart. coord. in units 2 pi/alat)
               b(1) = (  1.000000  0.577350  0.000000 )  
               b(2) = (  0.000000  1.154701  0.000000 )  
               b(3) = (  0.000000  0.000000  0.159125 )  


     PseudoPot. # 1 for Ni read from file:
     ../../pseudo/Ni.upf
     MD5 check sum: 14a7e289c5fff9cacaba393040e62f02
     Pseudo is Norm-conserving + core correction, Zval = 18.0
     Generated using ONCVPSP code by D. R. Hamann
     Using radial grid of 1372 points,  6 beta functions with: 
                l(1) =   0
                l(2) =   0
                l(3) =   1
                l(4) =   1
                l(5) =   2
                l(6) =   2

     PseudoPot. # 2 for I  read from file:
     ../../pseudo/I.upf
     MD5 check sum: 301f7009ca0a2b18b0adf53dca02d42f
     Pseudo is Norm-conserving + core correction, Zval =  7.0
     Generated using ONCVPSP code by D. R. Hamann
     Using radial grid of 1210 points,  6 beta functions with: 
                l(1) =   0
                l(2) =   0
                l(3) =   1
                l(4) =   1
                l(5) =   2
                l(6) =   2

     atomic species   valence    mass     pseudopotential
        Ni            18.00    58.69340     Ni( 1.00)
        I              7.00   126.90447     I ( 1.00)

     12 Sym. Ops., with inversion, found


                                    s                        frac. trans.

      isym =  1     identity                                     

 Time Reversal            0
 cryst.   s( 1) = (     1          0          0      )
                  (     0          1          0      )
                  (     0          0          1      )

 cart.    s( 1) = (  1.0000000 -0.0000000  0.0000000 )
                  (  0.0000000  1.0000000  0.0000000 )
                  (  0.0000000  0.0000000  1.0000000 )


      isym =  2     180 deg rotation - cart. axis [1,0,0]        

 Time Reversal            1
 cryst.   s( 2) = (     1          0          0      )
                  (    -1         -1          0      )
                  (     0          0         -1      )

 cart.    s( 2) = (  1.0000000  0.0000000  0.0000000 )
                  (  0.0000000 -1.0000000  0.0000000 )
                  (  0.0000000  0.0000000 -1.0000000 )


      isym =  3     120 deg rotation - cryst. axis [0,0,1]       

 Time Reversal            0
 cryst.   s( 3) = (     0          1          0      )
                  (    -1         -1          0      )
                  (     0          0          1      )

 cart.    s( 3) = ( -0.5000000 -0.8660254  0.0000000 )
                  (  0.8660254 -0.5000000  0.0000000 )
                  (  0.0000000  0.0000000  1.0000000 )


      isym =  4     120 deg rotation - cryst. axis [0,0,-1]      

 Time Reversal            0
 cryst.   s( 4) = (    -1         -1          0      )
                  (     1          0          0      )
                  (     0          0          1      )

 cart.    s( 4) = ( -0.5000000  0.8660254  0.0000000 )
                  ( -0.8660254 -0.5000000  0.0000000 )
                  (  0.0000000  0.0000000  1.0000000 )


      isym =  5     180 deg rotation - cryst. axis [0,1,0]       

 Time Reversal            1
 cryst.   s( 5) = (    -1         -1          0      )
                  (     0          1          0      )
                  (     0          0         -1      )

 cart.    s( 5) = ( -0.5000000 -0.8660254  0.0000000 )
                  ( -0.8660254  0.5000000  0.0000000 )
                  (  0.0000000  0.0000000 -1.0000000 )


      isym =  6     180 deg rotation - cryst. axis [1,1,0]       

 Time Reversal            1
 cryst.   s( 6) = (     0          1          0      )
                  (     1          0          0      )
                  (     0          0         -1      )

 cart.    s( 6) = ( -0.5000000  0.8660254  0.0000000 )
                  (  0.8660254  0.5000000  0.0000000 )
                  (  0.0000000  0.0000000 -1.0000000 )


      isym =  7     inversion                                    

 Time Reversal            0
 cryst.   s( 7) = (    -1          0          0      )
                  (     0         -1          0      )
                  (     0          0         -1      )

 cart.    s( 7) = ( -1.0000000  0.0000000  0.0000000 )
                  (  0.0000000 -1.0000000  0.0000000 )
                  (  0.0000000  0.0000000 -1.0000000 )


      isym =  8     inv. 180 deg rotation - cart. axis [1,0,0]   

 Time Reversal            1
 cryst.   s( 8) = (    -1          0          0      )
                  (     1          1          0      )
                  (     0          0          1      )

 cart.    s( 8) = ( -1.0000000 -0.0000000  0.0000000 )
                  (  0.0000000  1.0000000  0.0000000 )
                  (  0.0000000  0.0000000  1.0000000 )


      isym =  9     inv. 120 deg rotation - cryst. axis [0,0,1]  

 Time Reversal            0
 cryst.   s( 9) = (     0         -1          0      )
                  (     1          1          0      )
                  (     0          0         -1      )

 cart.    s( 9) = (  0.5000000  0.8660254  0.0000000 )
                  ( -0.8660254  0.5000000  0.0000000 )
                  (  0.0000000  0.0000000 -1.0000000 )


      isym = 10     inv. 120 deg rotation - cryst. axis [0,0,-1] 

 Time Reversal            0
 cryst.   s(10) = (     1          1          0      )
                  (    -1          0          0      )
                  (     0          0         -1      )

 cart.    s(10) = (  0.5000000 -0.8660254  0.0000000 )
                  (  0.8660254  0.5000000  0.0000000 )
                  (  0.0000000  0.0000000 -1.0000000 )


      isym = 11     inv. 180 deg rotation - cryst. axis [0,1,0]  

 Time Reversal            1
 cryst.   s(11) = (     1          1          0      )
                  (     0         -1          0      )
                  (     0          0          1      )

 cart.    s(11) = (  0.5000000  0.8660254  0.0000000 )
                  (  0.8660254 -0.5000000  0.0000000 )
                  (  0.0000000  0.0000000  1.0000000 )


      isym = 12     inv. 180 deg rotation - cryst. axis [1,1,0]  

 Time Reversal            1
 cryst.   s(12) = (     0         -1          0      )
                  (    -1          0          0      )
                  (     0          0          1      )

 cart.    s(12) = (  0.5000000 -0.8660254  0.0000000 )
                  ( -0.8660254 -0.5000000  0.0000000 )
                  (  0.0000000  0.0000000  1.0000000 )


   Cartesian axes

     site n.     atom                  positions (alat units)
         1           Ni  tau(   1) = (   0.0000000   0.0000000   3.1421749  )
         2           I   tau(   2) = (  -0.0000000   0.5773503   3.5289144  )
         3           I   tau(   3) = (   0.5000000   0.2886751   2.7554354  )

   Crystallographic axes

     site n.     atom                  positions (cryst. coord.)
         1           Ni  tau(   1) = (  0.0000000  0.0000000  0.5000000  )
         2           I   tau(   2) = (  0.3333333  0.6666667  0.5615401  )
         3           I   tau(   3) = (  0.6666667  0.3333333  0.4384599  )

     number of k points=    30  Marzari-Vanderbilt smearing, width (Ry)=  0.0015
                       cart. coord. in units 2pi/alat
        k(    1) = (   0.0000000   0.0000000   0.0000000), wk =   0.0039062
        k(    2) = (   0.0000000   0.0721688   0.0000000), wk =   0.0234375
        k(    3) = (   0.0000000   0.1443376   0.0000000), wk =   0.0234375
        k(    4) = (   0.0000000   0.2165064   0.0000000), wk =   0.0234375
        k(    5) = (   0.0000000   0.2886751   0.0000000), wk =   0.0234375
        k(    6) = (   0.0000000   0.3608439   0.0000000), wk =   0.0234375
        k(    7) = (   0.0000000   0.4330127   0.0000000), wk =   0.0234375
        k(    8) = (   0.0000000   0.5051815   0.0000000), wk =   0.0234375
        k(    9) = (   0.0000000  -0.5773503   0.0000000), wk =   0.0117188
        k(   10) = (   0.0625000   0.1082532   0.0000000), wk =   0.0234375
        k(   11) = (   0.0625000   0.1804220   0.0000000), wk =   0.0468750
        k(   12) = (   0.0625000   0.2525907   0.0000000), wk =   0.0468750
        k(   13) = (   0.0625000   0.3247595   0.0000000), wk =   0.0468750
        k(   14) = (   0.0625000   0.3969283   0.0000000), wk =   0.0468750
        k(   15) = (   0.0625000   0.4690971   0.0000000), wk =   0.0468750
        k(   16) = (   0.0625000   0.5412659   0.0000000), wk =   0.0468750
        k(   17) = (   0.1250000   0.2165064   0.0000000), wk =   0.0234375
        k(   18) = (   0.1250000   0.2886751   0.0000000), wk =   0.0468750
        k(   19) = (   0.1250000   0.3608439   0.0000000), wk =   0.0468750
        k(   20) = (   0.1250000   0.4330127   0.0000000), wk =   0.0468750
        k(   21) = (   0.1250000   0.5051815   0.0000000), wk =   0.0468750
        k(   22) = (   0.1250000   0.5773503   0.0000000), wk =   0.0234375
        k(   23) = (   0.1875000   0.3247595   0.0000000), wk =   0.0234375
        k(   24) = (   0.1875000   0.3969283   0.0000000), wk =   0.0468750
        k(   25) = (   0.1875000   0.4690971   0.0000000), wk =   0.0468750
        k(   26) = (   0.1875000   0.5412659   0.0000000), wk =   0.0468750
        k(   27) = (   0.2500000   0.4330127   0.0000000), wk =   0.0234375
        k(   28) = (   0.2500000   0.5051815   0.0000000), wk =   0.0468750
        k(   29) = (   0.2500000   0.5773503   0.0000000), wk =   0.0234375
        k(   30) = (   0.3125000   0.5412659   0.0000000), wk =   0.0234375

                       cryst. coord.
        k(    1) = (   0.0000000   0.0000000   0.0000000), wk =   0.0039062
        k(    2) = (   0.0000000   0.0625000   0.0000000), wk =   0.0234375
        k(    3) = (   0.0000000   0.1250000   0.0000000), wk =   0.0234375
        k(    4) = (   0.0000000   0.1875000   0.0000000), wk =   0.0234375
        k(    5) = (   0.0000000   0.2500000   0.0000000), wk =   0.0234375
        k(    6) = (   0.0000000   0.3125000   0.0000000), wk =   0.0234375
        k(    7) = (   0.0000000   0.3750000   0.0000000), wk =   0.0234375
        k(    8) = (   0.0000000   0.4375000   0.0000000), wk =   0.0234375
        k(    9) = (   0.0000000  -0.5000000   0.0000000), wk =   0.0117188
        k(   10) = (   0.0625000   0.0625000   0.0000000), wk =   0.0234375
        k(   11) = (   0.0625000   0.1250000   0.0000000), wk =   0.0468750
        k(   12) = (   0.0625000   0.1875000   0.0000000), wk =   0.0468750
        k(   13) = (   0.0625000   0.2500000   0.0000000), wk =   0.0468750
        k(   14) = (   0.0625000   0.3125000   0.0000000), wk =   0.0468750
        k(   15) = (   0.0625000   0.3750000   0.0000000), wk =   0.0468750
        k(   16) = (   0.0625000   0.4375000   0.0000000), wk =   0.0468750
        k(   17) = (   0.1250000   0.1250000   0.0000000), wk =   0.0234375
        k(   18) = (   0.1250000   0.1875000   0.0000000), wk =   0.0468750
        k(   19) = (   0.1250000   0.2500000   0.0000000), wk =   0.0468750
        k(   20) = (   0.1250000   0.3125000   0.0000000), wk =   0.0468750
        k(   21) = (   0.1250000   0.3750000   0.0000000), wk =   0.0468750
        k(   22) = (   0.1250000   0.4375000   0.0000000), wk =   0.0234375
        k(   23) = (   0.1875000   0.1875000   0.0000000), wk =   0.0234375
        k(   24) = (   0.1875000   0.2500000   0.0000000), wk =   0.0468750
        k(   25) = (   0.1875000   0.3125000   0.0000000), wk =   0.0468750
        k(   26) = (   0.1875000   0.3750000   0.0000000), wk =   0.0468750
        k(   27) = (   0.2500000   0.2500000   0.0000000), wk =   0.0234375
        k(   28) = (   0.2500000   0.3125000   0.0000000), wk =   0.0468750
        k(   29) = (   0.2500000   0.3750000   0.0000000), wk =   0.0234375
        k(   30) = (   0.3125000   0.3125000   0.0000000), wk =   0.0234375

     Dense  grid:   409943 G-vectors     FFT dimensions: (  54,  54, 360)

     Smooth grid:   385631 G-vectors     FFT dimensions: (  54,  54, 324)

     Dynamical RAM for                 wfc:       2.94 MB

     Dynamical RAM for     wfc (w. buffer):       2.94 MB

     Dynamical RAM for           str. fact:       0.63 MB

     Dynamical RAM for           local pot:       0.00 MB

     Dynamical RAM for          nlocal pot:       1.98 MB

     Dynamical RAM for                qrad:       3.59 MB

     Dynamical RAM for          rho,v,vnew:       8.56 MB

     Dynamical RAM for           G-vectors:       1.32 MB

     Dynamical RAM for          h,s,v(r/c):       0.29 MB

     Dynamical RAM for          <psi|beta>:       0.07 MB

     Dynamical RAM for                 psi:       5.88 MB

     Dynamical RAM for                hpsi:       5.88 MB

     Dynamical RAM for      wfcinit/wfcrot:       4.45 MB

     Estimated static dynamical RAM per process >      23.16 MB

     Estimated max dynamical RAM per process >      35.27 MB

     Estimated total dynamical RAM >     705.50 MB
     Generating pointlists ...
     new r_m :   0.2867 (alat units)  2.1099 (a.u.) for type    1
     new r_m :   0.2867 (alat units)  2.1099 (a.u.) for type    2

     The potential is recalculated from file :
     ./tmp/nnso.save/charge-density

     Starting wfcs are   36 randomized atomic wfcs +    4 random wfcs

     Band Structure Calculation
     Davidson diagonalization with overlap

     Computing kpt #:     1  of    30
     total cpu time spent up to now is        3.2 secs

     Computing kpt #:     2  of    30
     total cpu time spent up to now is        4.8 secs

     Computing kpt #:     3  of    30
     total cpu time spent up to now is        6.5 secs

     Computing kpt #:     4  of    30
     total cpu time spent up to now is        8.0 secs

     Computing kpt #:     5  of    30
     total cpu time spent up to now is        9.5 secs

     Computing kpt #:     6  of    30
     total cpu time spent up to now is       11.1 secs

     Computing kpt #:     7  of    30
     total cpu time spent up to now is       12.5 secs

     Computing kpt #:     8  of    30
     total cpu time spent up to now is       14.1 secs

     Computing kpt #:     9  of    30
     total cpu time spent up to now is       15.8 secs

     Computing kpt #:    10  of    30
     total cpu time spent up to now is       17.6 secs

     Computing kpt #:    11  of    30
     total cpu time spent up to now is       19.2 secs

     Computing kpt #:    12  of    30
     total cpu time spent up to now is       20.8 secs

     Computing kpt #:    13  of    30
     total cpu time spent up to now is       22.3 secs

     Computing kpt #:    14  of    30
     total cpu time spent up to now is       23.8 secs

     Computing kpt #:    15  of    30
     total cpu time spent up to now is       25.3 secs

     Computing kpt #:    16  of    30
     total cpu time spent up to now is       26.8 secs

     Computing kpt #:    17  of    30
     total cpu time spent up to now is       28.4 secs

     Computing kpt #:    18  of    30
     total cpu time spent up to now is       29.9 secs

     Computing kpt #:    19  of    30
     total cpu time spent up to now is       31.4 secs

     Computing kpt #:    20  of    30
     total cpu time spent up to now is       33.0 secs

     Computing kpt #:    21  of    30
     total cpu time spent up to now is       34.6 secs

     Computing kpt #:    22  of    30
     total cpu time spent up to now is       36.5 secs

     Computing kpt #:    23  of    30
     total cpu time spent up to now is       38.0 secs

     Computing kpt #:    24  of    30
     total cpu time spent up to now is       39.5 secs

     Computing kpt #:    25  of    30
     total cpu time spent up to now is       41.2 secs

     Computing kpt #:    26  of    30
     total cpu time spent up to now is       42.9 secs

     Computing kpt #:    27  of    30
     total cpu time spent up to now is       44.5 secs

     Computing kpt #:    28  of    30
     total cpu time spent up to now is       46.0 secs

     Computing kpt #:    29  of    30
     total cpu time spent up to now is       47.5 secs

     Computing kpt #:    30  of    30
     total cpu time spent up to now is       48.9 secs

     ethr =  3.12E-09,  avg # of iterations = 35.5

     total cpu time spent up to now is       48.9 secs

     End of band structure calculation

          k = 0.0000 0.0000 0.0000 ( 48107 PWs)   bands (ev):

  -105.9997-104.6292 -66.4734 -66.4199 -66.4199 -64.9640 -64.9530 -64.9530
   -15.7956 -15.5708 -14.8535 -14.5973  -6.8625  -6.6434  -5.8182  -5.8182
    -4.5712  -4.5712  -4.2857  -4.2857  -3.9198  -3.7916  -3.5491  -3.3454
    -3.3454  -3.1852  -2.8815  -2.8815  -2.6292  -2.6292  -1.9854  -1.9854
    -0.8906  -0.8906   1.7664   1.8990   2.5045   2.6095   2.6844   2.7576

     occupation numbers 
     1.0000   1.0000   1.0000   1.0000   1.0000   1.0000   1.0000   1.0000
     1.0000   1.0000   1.0000   1.0000   1.0000   1.0000   1.0000   1.0000
     1.0000   1.0000   1.0000   1.0000   1.0000   1.0000   1.0000   1.0000
     1.0000   1.0000   1.0000   1.0000   1.0000   1.0000   1.0000   1.0000
     0.0000   0.0000   0.0000   0.0000   0.0000   0.0000   0.0000   0.0000

          k = 0.0000 0.0722 0.0000 ( 48113 PWs)   bands (ev):

  -105.9997-104.6292 -66.4734 -66.4200 -66.4199 -64.9640 -64.9530 -64.9530
   -15.7653 -15.5400 -14.8368 -14.5800  -6.8313  -6.6128  -5.8574  -5.8148
    -4.6859  -4.5680  -4.3325  -4.3034  -3.9620  -3.7401  -3.4825  -3.4308
    -3.3969  -3.2508  -3.0397  -2.9185  -2.7043  -2.6360  -2.1614  -2.0112
    -1.0451  -0.9132   1.9118   2.0424   2.7035   2.7540   2.7919   2.8583

     occupation numbers 
     1.0000   1.0000   1.0000   1.0000   1.0000   1.0000   1.0000   1.0000
     1.0000   1.0000   1.0000   1.0000   1.0000   1.0000   1.0000   1.0000
     1.0000   1.0000   1.0000   1.0000   1.0000   1.0000   1.0000   1.0000
     1.0000   1.0000   1.0000   1.0000   1.0000   1.0000   1.0000   1.0000
     0.0000   0.0000   0.0000   0.0000   0.0000   0.0000   0.0000   0.0000

          k = 0.0000 0.1443 0.0000 ( 48142 PWs)   bands (ev):

  -105.9997-104.6292 -66.4734 -66.4200 -66.4200 -64.9640 -64.9531 -64.9530
   -15.6763 -15.4496 -14.7891 -14.5308  -6.7432  -6.5273  -5.9628  -5.8057
    -4.9634  -4.5590  -4.5480  -4.3513  -4.0702  -3.8676  -3.6184  -3.5299
    -3.3515  -3.3258  -3.2978  -3.0292  -2.7973  -2.6704  -2.5795  -2.0724
    -1.3602  -0.9654   2.2368   2.3657   2.8212   2.9052   2.9553   3.1007

     occupation numbers 
     1.0000   1.0000   1.0000   1.0000   1.0000   1.0000   1.0000   1.0000
     1.0000   1.0000   1.0000   1.0000   1.0000   1.0000   1.0000   1.0000
     1.0000   1.0000   1.0000   1.0000   1.0000   1.0000   1.0000   1.0000
     1.0000   1.0000   1.0000   1.0000   1.0000   1.0000   1.0000   1.0000
     0.0000   0.0000   0.0000   0.0000   0.0000   0.0000   0.0000   0.0000

          k = 0.0000 0.2165 0.0000 ( 48158 PWs)   bands (ev):

  -105.9997-104.6292 -66.4734 -66.4201 -66.4200 -64.9640 -64.9532 -64.9530
   -15.5350 -15.3059 -14.7176 -14.4569  -6.6221  -6.4123  -6.1095  -5.7933
    -5.3330  -5.0228  -4.5459  -4.4522  -4.4150  -4.1552  -3.7031  -3.5579
    -3.5287  -3.3490  -3.3009  -3.2047  -2.9638  -2.8581  -2.7481  -2.1382
    -1.5900  -1.0181   2.4335   2.6352   2.6707   2.7616   3.0045   3.1041

     occupation numbers 
     1.0000   1.0000   1.0000   1.0000   1.0000   1.0000   1.0000   1.0000
     1.0000   1.0000   1.0000   1.0000   1.0000   1.0000   1.0000   1.0000
     1.0000   1.0000   1.0000   1.0000   1.0000   1.0000   1.0000   1.0000
     1.0000   1.0000   1.0000   1.0000   1.0000   1.0000   1.0000   1.0000
     0.0000   0.0000   0.0000   0.0000   0.0000   0.0000   0.0000   0.0000

          k = 0.0000 0.2887 0.0000 ( 48148 PWs)   bands (ev):

  -105.9997-104.6292 -66.4734 -66.4202 -66.4200 -64.9640 -64.9533 -64.9531
   -15.3528 -15.1202 -14.6346 -14.3709  -6.5559  -6.3568  -6.2785  -5.7812
    -5.7461  -5.5180  -4.9244  -4.5312  -4.4754  -4.2121  -3.9050  -3.8821
    -3.6020  -3.5094  -3.4210  -3.3136  -2.9596  -2.9108  -2.8603  -2.1909
    -1.6135  -1.0545   1.9544   2.1545   2.9324   3.0516   3.2258   3.3371

     occupation numbers 
     1.0000   1.0000   1.0000   1.0000   1.0000   1.0000   1.0000   1.0000
     1.0000   1.0000   1.0000   1.0000   1.0000   1.0000   1.0000   1.0000
     1.0000   1.0000   1.0000   1.0000   1.0000   1.0000   1.0000   1.0000
     1.0000   1.0000   1.0000   1.0000   1.0000   1.0000   1.0000   1.0000
     0.0000   0.0000   0.0000   0.0000   0.0000   0.0000   0.0000   0.0000

          k = 0.0000 0.3608 0.0000 ( 48214 PWs)   bands (ev):

  -105.9997-104.6291 -66.4733 -66.4203 -66.4200 -64.9640 -64.9534 -64.9531
   -15.1472 -14.9102 -14.5570 -14.2907  -6.7873  -6.5885  -6.4075  -6.0259
    -5.7729  -5.6968  -5.1112  -4.5175  -4.5143  -4.3656  -4.2037  -4.0424
    -3.7658  -3.6874  -3.6464  -3.3286  -2.9813  -2.9722  -2.7972  -2.2275
    -1.4982  -1.0740   1.4912   1.7035   3.0594   3.2064   3.4812   3.6161

     occupation numbers 
     1.0000   1.0000   1.0000   1.0000   1.0000   1.0000   1.0000   1.0000
     1.0000   1.0000   1.0000   1.0000   1.0000   1.0000   1.0000   1.0000
     1.0000   1.0000   1.0000   1.0000   1.0000   1.0000   1.0000   1.0000
     1.0000   1.0000   1.0000   1.0000   1.0000   1.0000   1.0000   1.0000
     0.0000   0.0000   0.0000   0.0000   0.0000   0.0000   0.0000   0.0000

          k = 0.0000 0.4330 0.0000 ( 48212 PWs)   bands (ev):

  -105.9997-104.6291 -66.4733 -66.4204 -66.4200 -64.9640 -64.9535 -64.9531
   -14.9427 -14.7005 -14.5049 -14.2369  -7.1849  -6.9896  -6.5081  -6.2106
    -5.7697  -5.6310  -5.0120  -4.6209  -4.5213  -4.5070  -4.2578  -4.1672
    -4.0278  -3.8514  -3.7895  -3.3396  -3.0850  -3.0515  -2.6523  -2.2509
    -1.3578  -1.0828   1.1370   1.3664   3.0535   3.2082   3.5000   3.6682

     occupation numbers 
     1.0000   1.0000   1.0000   1.0000   1.0000   1.0000   1.0000   1.0000
     1.0000   1.0000   1.0000   1.0000   1.0000   1.0000   1.0000   1.0000
     1.0000   1.0000   1.0000   1.0000   1.0000   1.0000   1.0000   1.0000
     1.0000   1.0000   1.0000   1.0000   1.0000   1.0000   1.0000   1.0000
     0.0000   0.0000   0.0000   0.0000   0.0000   0.0000   0.0000   0.0000

          k = 0.0000 0.5052 0.0000 ( 48214 PWs)   bands (ev):

  -105.9997-104.6291 -66.4733 -66.4204 -66.4201 -64.9640 -64.9535 -64.9531
   -14.7729 -14.5262 -14.4934 -14.2249  -7.4827  -7.2883  -6.5816  -6.3569
    -5.7700  -5.5820  -4.7878  -4.6840  -4.5011  -4.5009  -4.2995  -4.2650
    -4.2459  -4.0063  -3.8941  -3.3462  -3.1536  -3.1299  -2.5638  -2.2639
    -1.2599  -1.0862   0.9217   1.1689   2.9932   3.1411   3.5356   3.7179

     occupation numbers 
     1.0000   1.0000   1.0000   1.0000   1.0000   1.0000   1.0000   1.0000
     1.0000   1.0000   1.0000   1.0000   1.0000   1.0000   1.0000   1.0000
     1.0000   1.0000   1.0000   1.0000   1.0000   1.0000   1.0000   1.0000
     1.0000   1.0000   1.0000   1.0000   1.0000   1.0000   1.0000   1.0000
     0.0000   0.0000   0.0000   0.0000   0.0000   0.0000   0.0000   0.0000

          k = 0.0000-0.5774 0.0000 ( 48254 PWs)   bands (ev):

  -105.9997-104.6291 -66.4733 -66.4204 -66.4201 -64.9639 -64.9535 -64.9531
   -14.6955 -14.5051 -14.4475 -14.2360  -7.5898  -7.3954  -6.6085  -6.4122
    -5.7705  -5.5803  -4.6553  -4.6068  -4.4990  -4.4848  -4.4346  -4.3284
    -4.2726  -4.0687  -3.9432  -3.3485  -3.1774  -3.1647  -2.5354  -2.2680
    -1.2267  -1.0870   0.8508   1.1062   2.9590   3.1033   3.6792   3.8304

     occupation numbers 
     1.0000   1.0000   1.0000   1.0000   1.0000   1.0000   1.0000   1.0000
     1.0000   1.0000   1.0000   1.0000   1.0000   1.0000   1.0000   1.0000
     1.0000   1.0000   1.0000   1.0000   1.0000   1.0000   1.0000   1.0000
     1.0000   1.0000   1.0000   1.0000   1.0000   1.0000   1.0000   1.0000
     0.0000   0.0000   0.0000   0.0000   0.0000   0.0000   0.0000   0.0000

          k = 0.0625 0.1083 0.0000 ( 48119 PWs)   bands (ev):

  -105.9997-104.6292 -66.4734 -66.4200 -66.4200 -64.9640 -64.9531 -64.9530
   -15.7056 -15.4794 -14.8046 -14.5468  -6.7715  -6.5547  -5.9279  -5.8105
    -4.8741  -4.5664  -4.4107  -4.3924  -4.0366  -3.7129  -3.6528  -3.5083
    -3.3741  -3.2878  -3.2475  -3.0248  -2.7752  -2.6634  -2.3870  -2.1038
    -1.2404  -0.9857   2.1455   2.2737   2.7898   2.8715   3.1088   3.1642

     occupation numbers 
     1.0000   1.0000   1.0000   1.0000   1.0000   1.0000   1.0000   1.0000
     1.0000   1.0000   1.0000   1.0000   1.0000   1.0000   1.0000   1.0000
     1.0000   1.0000   1.0000   1.0000   1.0000   1.0000   1.0000   1.0000
     1.0000   1.0000   1.0000   1.0000   1.0000   1.0000   1.0000   1.0000
     0.0000   0.0000   0.0000   0.0000   0.0000   0.0000   0.0000   0.0000

          k = 0.0625 0.1804 0.0000 ( 48136 PWs)   bands (ev):

  -105.9997-104.6292 -66.4734 -66.4201 -66.4200 -64.9640 -64.9531 -64.9530
   -15.5904 -15.3623 -14.7449 -14.4851  -6.6651  -6.4526  -6.0484  -5.8057
    -5.1760  -4.7529  -4.5700  -4.5038  -4.2310  -4.1060  -3.6755  -3.5457
    -3.4542  -3.3142  -3.3016  -3.2428  -2.8358  -2.7293  -2.6795  -2.2254
    -1.4572  -1.0860   2.4713   2.6064   2.8665   2.9530   2.9867   3.0907

     occupation numbers 
     1.0000   1.0000   1.0000   1.0000   1.0000   1.0000   1.0000   1.0000
     1.0000   1.0000   1.0000   1.0000   1.0000   1.0000   1.0000   1.0000
     1.0000   1.0000   1.0000   1.0000   1.0000   1.0000   1.0000   1.0000
     1.0000   1.0000   1.0000   1.0000   1.0000   1.0000   1.0000   1.0000
     0.0000   0.0000   0.0000   0.0000   0.0000   0.0000   0.0000   0.0000

          k = 0.0625 0.2526 0.0000 ( 48148 PWs)   bands (ev):

  -105.9997-104.6292 -66.4734 -66.4201 -66.4200 -64.9640 -64.9532 -64.9531
   -15.4284 -15.1974 -14.6673 -14.4048  -6.5580  -6.3543  -6.1987  -5.8043
    -5.5508  -5.2694  -4.7736  -4.6073  -4.5635  -4.1389  -3.8653  -3.7246
    -3.5727  -3.4021  -3.3680  -3.3100  -2.8917  -2.8911  -2.8106  -2.2925
    -1.5726  -1.1413   2.3384   2.5474   2.8725   2.9762   3.1181   3.2260

     occupation numbers 
     1.0000   1.0000   1.0000   1.0000   1.0000   1.0000   1.0000   1.0000
     1.0000   1.0000   1.0000   1.0000   1.0000   1.0000   1.0000   1.0000
     1.0000   1.0000   1.0000   1.0000   1.0000   1.0000   1.0000   1.0000
     1.0000   1.0000   1.0000   1.0000   1.0000   1.0000   1.0000   1.0000
     0.0000   0.0000   0.0000   0.0000   0.0000   0.0000   0.0000   0.0000

          k = 0.0625 0.3248 0.0000 ( 48173 PWs)   bands (ev):

  -105.9997-104.6291 -66.4733 -66.4202 -66.4200 -64.9640 -64.9533 -64.9531
   -15.2340 -14.9990 -14.5862 -14.3209  -6.6188  -6.4197  -6.3498  -5.9076
    -5.8048  -5.6198  -5.0856  -4.6961  -4.5770  -4.1703  -4.1035  -4.0509
    -3.6740  -3.6219  -3.5156  -3.3204  -2.9596  -2.8968  -2.8514  -2.3250
    -1.5420  -1.1558   1.8562   2.0699   3.1010   3.2351   3.3894   3.5034

     occupation numbers 
     1.0000   1.0000   1.0000   1.0000   1.0000   1.0000   1.0000   1.0000
     1.0000   1.0000   1.0000   1.0000   1.0000   1.0000   1.0000   1.0000
     1.0000   1.0000   1.0000   1.0000   1.0000   1.0000   1.0000   1.0000
     1.0000   1.0000   1.0000   1.0000   1.0000   1.0000   1.0000   1.0000
     0.0000   0.0000   0.0000   0.0000   0.0000   0.0000   0.0000   0.0000

          k = 0.0625 0.3969 0.0000 ( 48195 PWs)   bands (ev):

  -105.9997-104.6291 -66.4733 -66.4203 -66.4200 -64.9640 -64.9534 -64.9531
   -15.0280 -14.7880 -14.5204 -14.2529  -6.9714  -6.7739  -6.4564  -6.1169
    -5.7831  -5.6567  -5.0958  -4.7562  -4.5840  -4.4676  -4.2222  -4.1575
    -3.8760  -3.8174  -3.6740  -3.3200  -3.0535  -2.9788  -2.7238  -2.3417
    -1.4363  -1.1502   1.4433   1.6682   3.1835   3.3380   3.6112   3.7604

     occupation numbers 
     1.0000   1.0000   1.0000   1.0000   1.0000   1.0000   1.0000   1.0000
     1.0000   1.0000   1.0000   1.0000   1.0000   1.0000   1.0000   1.0000
     1.0000   1.0000   1.0000   1.0000   1.0000   1.0000   1.0000   1.0000
     1.0000   1.0000   1.0000   1.0000   1.0000   1.0000   1.0000   1.0000
     0.0000   0.0000   0.0000   0.0000   0.0000   0.0000   0.0000   0.0000

          k = 0.0625 0.4691 0.0000 ( 48179 PWs)   bands (ev):

  -105.9997-104.6291 -66.4733 -66.4204 -66.4201 -64.9640 -64.9535 -64.9531
   -14.8385 -14.5934 -14.4884 -14.2200  -7.3295  -7.1347  -6.5414  -6.2808
    -5.7758  -5.5881  -4.9216  -4.7792  -4.6578  -4.5719  -4.3735  -4.1585
    -4.1031  -3.9726  -3.7977  -3.3096  -3.1372  -3.0630  -2.6161  -2.3578
    -1.3288  -1.1483   1.1535   1.3933   3.2010   3.3559   3.5990   3.7735

     occupation numbers 
     1.0000   1.0000   1.0000   1.0000   1.0000   1.0000   1.0000   1.0000
     1.0000   1.0000   1.0000   1.0000   1.0000   1.0000   1.0000   1.0000
     1.0000   1.0000   1.0000   1.0000   1.0000   1.0000   1.0000   1.0000
     1.0000   1.0000   1.0000   1.0000   1.0000   1.0000   1.0000   1.0000
     0.0000   0.0000   0.0000   0.0000   0.0000   0.0000   0.0000   0.0000

          k = 0.0625 0.5413 0.0000 ( 48239 PWs)   bands (ev):

  -105.9997-104.6291 -66.4733 -66.4204 -66.4201 -64.9639 -64.9535 -64.9531
   -14.7065 -14.4951 -14.4582 -14.2264  -7.5343  -7.3401  -6.5891  -6.3790
    -5.7705  -5.5731  -4.7833  -4.7389  -4.6791  -4.5333  -4.4611  -4.2985
    -4.1817  -4.0462  -3.8920  -3.2982  -3.1724  -3.1365  -2.5511  -2.3777
    -1.2488  -1.1687   1.0081   1.2603   3.1800   3.3293   3.6930   3.8837

     occupation numbers 
     1.0000   1.0000   1.0000   1.0000   1.0000   1.0000   1.0000   1.0000
     1.0000   1.0000   1.0000   1.0000   1.0000   1.0000   1.0000   1.0000
     1.0000   1.0000   1.0000   1.0000   1.0000   1.0000   1.0000   1.0000
     1.0000   1.0000   1.0000   1.0000   1.0000   1.0000   1.0000   1.0000
     0.0000   0.0000   0.0000   0.0000   0.0000   0.0000   0.0000   0.0000

          k = 0.1250 0.2165 0.0000 ( 48125 PWs)   bands (ev):

  -105.9997-104.6292 -66.4734 -66.4201 -66.4200 -64.9640 -64.9532 -64.9531
   -15.4544 -15.2238 -14.6788 -14.4167  -6.5656  -6.3601  -6.1623  -5.8222
    -5.4513  -5.0532  -4.7937  -4.7348  -4.5705  -4.1048  -3.8902  -3.6551
    -3.5620  -3.3904  -3.3423  -3.3226  -2.8830  -2.7988  -2.6577  -2.5158
    -1.4460  -1.2976   2.6574   2.8775   2.9090   3.0168   3.0421   3.1464

     occupation numbers 
     1.0000   1.0000   1.0000   1.0000   1.0000   1.0000   1.0000   1.0000
     1.0000   1.0000   1.0000   1.0000   1.0000   1.0000   1.0000   1.0000
     1.0000   1.0000   1.0000   1.0000   1.0000   1.0000   1.0000   1.0000
     1.0000   1.0000   1.0000   1.0000   1.0000   1.0000   1.0000   1.0000
     0.0000   0.0000   0.0000   0.0000   0.0000   0.0000   0.0000   0.0000

          k = 0.1250 0.2887 0.0000 ( 48141 PWs)   bands (ev):

  -105.9997-104.6291 -66.4733 -66.4202 -66.4200 -64.9640 -64.9533 -64.9531
   -15.2797 -15.0456 -14.6024 -14.3377  -6.5380  -6.3384  -6.2906  -5.8456
    -5.7656  -5.4285  -5.0892  -4.9819  -4.6527  -4.1077  -4.0967  -3.9681
    -3.6721  -3.5186  -3.4170  -3.3217  -2.9478  -2.8433  -2.8015  -2.5579
    -1.5005  -1.3306   2.3682   2.6007   3.1448   3.2694   3.2708   3.3710

     occupation numbers 
     1.0000   1.0000   1.0000   1.0000   1.0000   1.0000   1.0000   1.0000
     1.0000   1.0000   1.0000   1.0000   1.0000   1.0000   1.0000   1.0000
     1.0000   1.0000   1.0000   1.0000   1.0000   1.0000   1.0000   1.0000
     1.0000   1.0000   1.0000   1.0000   1.0000   1.0000   1.0000   1.0000
     0.0000   0.0000   0.0000   0.0000   0.0000   0.0000   0.0000   0.0000

          k = 0.1250 0.3608 0.0000 ( 48162 PWs)   bands (ev):

  -105.9997-104.6291 -66.4733 -66.4203 -66.4201 -64.9640 -64.9534 -64.9531
   -15.0835 -14.8449 -14.5314 -14.2643  -6.7551  -6.5519  -6.4049  -6.0277
    -5.8247  -5.6130  -5.1869  -5.0882  -4.7248  -4.3092  -4.3065  -4.0839
    -3.8077  -3.7596  -3.5455  -3.3052  -3.0328  -2.9001  -2.8412  -2.5088
    -1.5390  -1.2560   1.9665   2.1986   3.2720   3.4202   3.6688   3.7769

     occupation numbers 
     1.0000   1.0000   1.0000   1.0000   1.0000   1.0000   1.0000   1.0000
     1.0000   1.0000   1.0000   1.0000   1.0000   1.0000   1.0000   1.0000
     1.0000   1.0000   1.0000   1.0000   1.0000   1.0000   1.0000   1.0000
     1.0000   1.0000   1.0000   1.0000   1.0000   1.0000   1.0000   1.0000
     0.0000   0.0000   0.0000   0.0000   0.0000   0.0000   0.0000   0.0000

          k = 0.1250 0.4330 0.0000 ( 48177 PWs)   bands (ev):

  -105.9997-104.6291 -66.4733 -66.4203 -66.4201 -64.9640 -64.9534 -64.9532
   -14.8897 -14.6458 -14.4841 -14.2158  -7.1071  -6.9094  -6.4887  -6.1919
    -5.8034  -5.5903  -5.1528  -5.1081  -4.7462  -4.5950  -4.4864  -4.0616
    -3.9943  -3.9565  -3.6759  -3.2740  -3.1229  -2.9718  -2.7861  -2.4890
    -1.4984  -1.2110   1.6208   1.8584   3.4108   3.5664   3.9406   4.0839

     occupation numbers 
     1.0000   1.0000   1.0000   1.0000   1.0000   1.0000   1.0000   1.0000
     1.0000   1.0000   1.0000   1.0000   1.0000   1.0000   1.0000   1.0000
     1.0000   1.0000   1.0000   1.0000   1.0000   1.0000   1.0000   1.0000
     1.0000   1.0000   1.0000   1.0000   1.0000   1.0000   1.0000   1.0000
     0.0000   0.0000   0.0000   0.0000   0.0000   0.0000   0.0000   0.0000

          k = 0.1250 0.5052 0.0000 ( 48212 PWs)   bands (ev):

  -105.9997-104.6291 -66.4733 -66.4204 -66.4201 -64.9639 -64.9535 -64.9532
   -14.7295 -14.4809 -14.4745 -14.2062  -7.3778  -7.1839  -6.5418  -6.2972
    -5.7819  -5.5506  -5.2158  -5.0605  -4.7261  -4.6313  -4.6113  -4.2081
    -4.0779  -4.0212  -3.7836  -3.2493  -3.1720  -3.0492  -2.7038  -2.5195
    -1.4220  -1.2219   1.3994   1.6467   3.5753   3.7256   3.9808   4.1564

     occupation numbers 
     1.0000   1.0000   1.0000   1.0000   1.0000   1.0000   1.0000   1.0000
     1.0000   1.0000   1.0000   1.0000   1.0000   1.0000   1.0000   1.0000
     1.0000   1.0000   1.0000   1.0000   1.0000   1.0000   1.0000   1.0000
     1.0000   1.0000   1.0000   1.0000   1.0000   1.0000   1.0000   1.0000
     0.0000   0.0000   0.0000   0.0000   0.0000   0.0000   0.0000   0.0000

          k = 0.1250 0.5774 0.0000 ( 48240 PWs)   bands (ev):

  -105.9997-104.6291 -66.4733 -66.4204 -66.4201 -64.9639 -64.9535 -64.9532
   -14.6563 -14.4863 -14.4060 -14.2179  -7.4762  -7.2834  -6.5599  -6.3344
    -5.7580  -5.5613  -5.2473  -5.0598  -4.7389  -4.6582  -4.4480  -4.3970
    -4.1246  -3.9927  -3.8389  -3.2581  -3.1446  -3.1070  -2.6392  -2.5681
    -1.3680  -1.2539   1.3247   1.5773   3.6660   3.8071   4.0169   4.1033

     occupation numbers 
     1.0000   1.0000   1.0000   1.0000   1.0000   1.0000   1.0000   1.0000
     1.0000   1.0000   1.0000   1.0000   1.0000   1.0000   1.0000   1.0000
     1.0000   1.0000   1.0000   1.0000   1.0000   1.0000   1.0000   1.0000
     1.0000   1.0000   1.0000   1.0000   1.0000   1.0000   1.0000   1.0000
     0.0000   0.0000   0.0000   0.0000   0.0000   0.0000   0.0000   0.0000

          k = 0.1875 0.3248 0.0000 ( 48145 PWs)   bands (ev):

  -105.9997-104.6291 -66.4733 -66.4203 -66.4201 -64.9640 -64.9534 -64.9531
   -15.1028 -14.8646 -14.5354 -14.2685  -6.6579  -6.4501  -6.3776  -5.9783
    -5.8517  -5.5204  -5.3076  -5.2624  -4.7734  -4.3474  -4.2271  -4.0628
    -3.8048  -3.7150  -3.4672  -3.3019  -3.0252  -2.9486  -2.8673  -2.5680
    -1.5987  -1.2923   2.3089   2.5579   3.1784   3.3124   3.6710   3.7718

     occupation numbers 
     1.0000   1.0000   1.0000   1.0000   1.0000   1.0000   1.0000   1.0000
     1.0000   1.0000   1.0000   1.0000   1.0000   1.0000   1.0000   1.0000
     1.0000   1.0000   1.0000   1.0000   1.0000   1.0000   1.0000   1.0000
     1.0000   1.0000   1.0000   1.0000   1.0000   1.0000   1.0000   1.0000
     0.0000   0.0000   0.0000   0.0000   0.0000   0.0000   0.0000   0.0000

          k = 0.1875 0.3969 0.0000 ( 48173 PWs)   bands (ev):

  -105.9997-104.6291 -66.4733 -66.4203 -66.4201 -64.9640 -64.9534 -64.9532
   -14.9176 -14.6743 -14.4818 -14.2136  -6.9078  -6.7009  -6.4486  -6.1482
    -5.8574  -5.5679  -5.4438  -5.3167  -4.8177  -4.5619  -4.5142  -4.0328
    -3.9387  -3.9342  -3.5771  -3.2597  -3.1133  -3.0133  -2.9131  -2.5291
    -1.6468  -1.2319   2.0734   2.3203   3.2789   3.4217   4.1233   4.2316

     occupation numbers 
     1.0000   1.0000   1.0000   1.0000   1.0000   1.0000   1.0000   1.0000
     1.0000   1.0000   1.0000   1.0000   1.0000   1.0000   1.0000   1.0000
     1.0000   1.0000   1.0000   1.0000   1.0000   1.0000   1.0000   1.0000
     1.0000   1.0000   1.0000   1.0000   1.0000   1.0000   1.0000   1.0000
     0.0000   0.0000   0.0000   0.0000   0.0000   0.0000   0.0000   0.0000

          k = 0.1875 0.4691 0.0000 ( 48158 PWs)   bands (ev):

  -105.9997-104.6291 -66.4733 -66.4204 -66.4201 -64.9639 -64.9535 -64.9532
   -14.7493 -14.5007 -14.4573 -14.1890  -7.1661  -6.9701  -6.4918  -6.2277
    -5.8724  -5.5586  -5.5041  -5.4105  -4.7605  -4.7446  -4.6947  -4.1354
    -4.0534  -3.9742  -3.6896  -3.2278  -3.1723  -2.9740  -2.9663  -2.5521
    -1.6074  -1.2369   1.8237   2.0702   3.5115   3.6593   4.3882   4.5334

     occupation numbers 
     1.0000   1.0000   1.0000   1.0000   1.0000   1.0000   1.0000   1.0000
     1.0000   1.0000   1.0000   1.0000   1.0000   1.0000   1.0000   1.0000
     1.0000   1.0000   1.0000   1.0000   1.0000   1.0000   1.0000   1.0000
     1.0000   1.0000   1.0000   1.0000   1.0000   1.0000   1.0000   1.0000
     0.0000   0.0000   0.0000   0.0000   0.0000   0.0000   0.0000   0.0000

          k = 0.1875 0.5413 0.0000 ( 48174 PWs)   bands (ev):

  -105.9997-104.6291 -66.4733 -66.4204 -66.4202 -64.9639 -64.9535 -64.9532
   -14.6319 -14.4661 -14.3794 -14.1987  -7.3224  -7.1326  -6.5116  -6.2483
    -5.8055  -5.6616  -5.5143  -5.4991  -4.8708  -4.8317  -4.5203  -4.3177
    -4.0971  -3.9276  -3.7743  -3.2654  -3.1284  -3.0360  -2.8917  -2.6137
    -1.5371  -1.2877   1.6803   1.9303   3.8474   3.9946   4.2693   4.4211

     occupation numbers 
     1.0000   1.0000   1.0000   1.0000   1.0000   1.0000   1.0000   1.0000
     1.0000   1.0000   1.0000   1.0000   1.0000   1.0000   1.0000   1.0000
     1.0000   1.0000   1.0000   1.0000   1.0000   1.0000   1.0000   1.0000
     1.0000   1.0000   1.0000   1.0000   1.0000   1.0000   1.0000   1.0000
     0.0000   0.0000   0.0000   0.0000   0.0000   0.0000   0.0000   0.0000

          k = 0.2500 0.4330 0.0000 ( 48187 PWs)   bands (ev):

  -105.9997-104.6291 -66.4733 -66.4203 -66.4202 -64.9639 -64.9534 -64.9532
   -14.7568 -14.5082 -14.4508 -14.1826  -7.0442  -6.8431  -6.4665  -6.2243
    -6.0001  -5.6250  -5.5573  -5.4948  -4.7955  -4.7718  -4.7238  -4.1093
    -4.0528  -3.9534  -3.6455  -3.2210  -3.1723  -3.0844  -2.9465  -2.5627
    -1.6792  -1.2424   2.0243   2.2739   3.3666   3.5094   4.6343   4.7474

     occupation numbers 
     1.0000   1.0000   1.0000   1.0000   1.0000   1.0000   1.0000   1.0000
     1.0000   1.0000   1.0000   1.0000   1.0000   1.0000   1.0000   1.0000
     1.0000   1.0000   1.0000   1.0000   1.0000   1.0000   1.0000   1.0000
     1.0000   1.0000   1.0000   1.0000   1.0000   1.0000   1.0000   1.0000
     0.0000   0.0000   0.0000   0.0000   0.0000   0.0000   0.0000   0.0000

          k = 0.2500 0.5052 0.0000 ( 48229 PWs)   bands (ev):

  -105.9997-104.6291 -66.4733 -66.4203 -66.4202 -64.9639 -64.9534 -64.9533
   -14.6247 -14.4494 -14.3709 -14.1826  -7.1445  -6.9583  -6.4694  -6.2101
    -6.1372  -5.7887  -5.6486  -5.4706  -5.0090  -4.9758  -4.5655  -4.2588
    -4.0860  -3.8942  -3.7243  -3.2741  -3.1226  -3.0340  -2.9919  -2.6533
    -1.6283  -1.3132   1.9009   2.1470   3.6546   3.8081   4.5529   4.7115

     occupation numbers 
     1.0000   1.0000   1.0000   1.0000   1.0000   1.0000   1.0000   1.0000
     1.0000   1.0000   1.0000   1.0000   1.0000   1.0000   1.0000   1.0000
     1.0000   1.0000   1.0000   1.0000   1.0000   1.0000   1.0000   1.0000
     1.0000   1.0000   1.0000   1.0000   1.0000   1.0000   1.0000   1.0000
     0.0000   0.0000   0.0000   0.0000   0.0000   0.0000   0.0000   0.0000

          k = 0.2500 0.5774 0.0000 ( 48231 PWs)   bands (ev):

  -105.9997-104.6291 -66.4733 -66.4203 -66.4202 -64.9639 -64.9534 -64.9533
   -14.5607 -14.4654 -14.3042 -14.1999  -7.1828  -7.0042  -6.4735  -6.1754
    -6.1625  -5.9078  -5.6306  -5.4913  -5.0998  -5.0447  -4.4437  -4.3669
    -4.0941  -3.8501  -3.7728  -3.3004  -3.0817  -3.0270  -2.9747  -2.7241
    -1.5744  -1.3739   1.8449   2.0900   4.0003   4.1668   4.1707   4.3268

     occupation numbers 
     1.0000   1.0000   1.0000   1.0000   1.0000   1.0000   1.0000   1.0000
     1.0000   1.0000   1.0000   1.0000   1.0000   1.0000   1.0000   1.0000
     1.0000   1.0000   1.0000   1.0000   1.0000   1.0000   1.0000   1.0000
     1.0000   1.0000   1.0000   1.0000   1.0000   1.0000   1.0000   1.0000
     0.0000   0.0000   0.0000   0.0000   0.0000   0.0000   0.0000   0.0000

          k = 0.3125 0.5413 0.0000 ( 48231 PWs)   bands (ev):

  -105.9997-104.6291 -66.4733 -66.4203 -66.4203 -64.9639 -64.9534 -64.9533
   -14.5321 -14.4686 -14.2733 -14.2046  -7.0770  -6.9120  -6.4477  -6.3925
    -6.1572  -6.0532  -5.5497  -5.4508  -5.2724  -5.1447  -4.4462  -4.3501
    -4.0913  -3.8263  -3.7688  -3.3148  -3.0677  -3.0213  -2.9656  -2.7967
    -1.5629  -1.4278   1.8890   2.1300   3.9557   4.1241   4.3172   4.4896

     occupation numbers 
     1.0000   1.0000   1.0000   1.0000   1.0000   1.0000   1.0000   1.0000
     1.0000   1.0000   1.0000   1.0000   1.0000   1.0000   1.0000   1.0000
     1.0000   1.0000   1.0000   1.0000   1.0000   1.0000   1.0000   1.0000
     1.0000   1.0000   1.0000   1.0000   1.0000   1.0000   1.0000   1.0000
     0.0000   0.0000   0.0000   0.0000   0.0000   0.0000   0.0000   0.0000

     the Fermi energy is    -1.7822 ev
     (compare with:    -1.7810 eV, computed in scf)

     Writing all to output data dir ./tmp/nnso.save/
 
     init_run     :      1.21s CPU      1.25s WALL (       1 calls)
     electrons    :     47.34s CPU     47.53s WALL (       1 calls)

     Called by init_run:
     wfcinit      :      0.00s CPU      0.01s WALL (       1 calls)
     wfcinit:atom :      0.05s CPU      0.05s WALL (      30 calls)
     wfcinit:wfcr :      2.25s CPU      2.25s WALL (      30 calls)
     potinit      :      0.08s CPU      0.10s WALL (       1 calls)
     hinit0       :      1.03s CPU      1.03s WALL (       1 calls)

     Called by electrons:
     c_bands      :     47.34s CPU     47.53s WALL (       1 calls)
     v_of_rho     :      0.06s CPU      0.07s WALL (       1 calls)
     v_h          :      0.00s CPU      0.00s WALL (       1 calls)
     v_xc         :      0.06s CPU      0.07s WALL (       1 calls)

     Called by c_bands:
     init_us_2    :      0.02s CPU      0.03s WALL (      30 calls)
     init_us_2:cp :      0.02s CPU      0.03s WALL (      30 calls)
     cegterg      :     44.43s CPU     44.56s WALL (      64 calls)

     Called by sum_band:

     Called by *egterg:
     cdiaghg      :      2.07s CPU      2.08s WALL (    1094 calls)
     cegterg:over :      3.49s CPU      3.50s WALL (    1064 calls)
     cegterg:upda :      2.68s CPU      2.68s WALL (    1064 calls)
     cegterg:last :      3.19s CPU      3.20s WALL (     488 calls)
     h_psi        :     33.79s CPU     33.90s WALL (    1158 calls)
     g_psi        :      0.33s CPU      0.33s WALL (    1064 calls)

     Called by h_psi:
     h_psi:calbec :      1.32s CPU      1.33s WALL (    1158 calls)
     vloc_psi     :     30.69s CPU     30.79s WALL (    1158 calls)
     add_vuspsi   :      1.29s CPU      1.29s WALL (    1158 calls)

     General routines
     calbec       :      1.32s CPU      1.33s WALL (    1158 calls)
     fft          :      0.11s CPU      0.12s WALL (      27 calls)
     ffts         :      0.00s CPU      0.00s WALL (       4 calls)
     fftw         :     23.70s CPU     23.77s WALL (   79560 calls)
     interpolate  :      0.01s CPU      0.01s WALL (       4 calls)
     davcio       :      0.09s CPU      0.33s WALL (      60 calls)
 
     Parallel routines
 
     PWSCF        :     49.76s CPU     50.72s WALL

 
   This run was terminated on:  23:26: 9  26Jun2023            

=------------------------------------------------------------------------------=
   JOB DONE.
=------------------------------------------------------------------------------=
