
     Program PROJWFC v.7.1 starts on 27Jun2023 at 15:53:46

     This program is part of the open-source Quantum ESPRESSO suite
     for quantum simulation of materials; please cite
         "P. Giannozzi et al., J. Phys.:Condens. Matter 21 395502 (2009);
         "P. Giannozzi et al., J. Phys.:Condens. Matter 29 465901 (2017);
         "P. Giannozzi et al., J. Chem. Phys. 152 154105 (2020);
          URL http://www.quantum-espresso.org",
     in publications or presentations arising from this work. More details at
     http://www.quantum-espresso.org/quote

     Parallel version (MPI & OpenMP), running on      20 processor cores
     Number of MPI processes:                20
     Threads/MPI process:                     1

     MPI processes distributed on     1 nodes
     R & G space division:  proc/nbgrp/npool/nimage =      20
     227432 MiB available memory on the printing compute node when the environment starts


     Reading xml data from directory:

     ./tmp/nnso.save/

     IMPORTANT: XC functional enforced from input :
     Exchange-correlation= PBE
                           (   1   4   3   4   0   0   0)
     Any further DFT definition will be discarded
     Please, verify this is what you really want


     Parallelization info
     --------------------
     sticks:   dense  smooth     PW     G-vecs:    dense   smooth      PW
     Min          93      89     25                20481    19267    2993
     Max          94      90     26                20502    19300    3024
     Sum        1879    1789    511               409943   385631   60191

     Using Slab Decomposition


     Gaussian broadening (read from input): ngauss,degauss=   0    0.003000


     Calling projwave ....
     Subspace diagonalization in iterative solution of the eigenvalue problem:
     one sub-group per band group will be used
     ELPA distributed-memory algorithm (size of sub-group:  4*  4 procs)

     linear algebra parallelized on  16 procs

  Problem Sizes
  natomwfc =           36
  nx       =            9
  nbnd     =           40
  nkstot   =          256
  npwx     =         2460
  nkb      =           54


     Atomic states used for projection
     (read from pseudopotential files):

     state #   1: atom   1 (Ni ), wfc  1 (l=0 m= 1 s_z= 0.5)
     state #   2: atom   1 (Ni ), wfc  1 (l=0 m= 1 s_z=-0.5)
     state #   3: atom   1 (Ni ), wfc  2 (l=1 m= 1 s_z= 0.5)
     state #   4: atom   1 (Ni ), wfc  2 (l=1 m= 2 s_z= 0.5)
     state #   5: atom   1 (Ni ), wfc  2 (l=1 m= 3 s_z= 0.5)
     state #   6: atom   1 (Ni ), wfc  2 (l=1 m= 1 s_z=-0.5)
     state #   7: atom   1 (Ni ), wfc  2 (l=1 m= 2 s_z=-0.5)
     state #   8: atom   1 (Ni ), wfc  2 (l=1 m= 3 s_z=-0.5)
     state #   9: atom   1 (Ni ), wfc  3 (l=2 m= 1 s_z= 0.5)
     state #  10: atom   1 (Ni ), wfc  3 (l=2 m= 2 s_z= 0.5)
     state #  11: atom   1 (Ni ), wfc  3 (l=2 m= 3 s_z= 0.5)
     state #  12: atom   1 (Ni ), wfc  3 (l=2 m= 4 s_z= 0.5)
     state #  13: atom   1 (Ni ), wfc  3 (l=2 m= 5 s_z= 0.5)
     state #  14: atom   1 (Ni ), wfc  3 (l=2 m= 1 s_z=-0.5)
     state #  15: atom   1 (Ni ), wfc  3 (l=2 m= 2 s_z=-0.5)
     state #  16: atom   1 (Ni ), wfc  3 (l=2 m= 3 s_z=-0.5)
     state #  17: atom   1 (Ni ), wfc  3 (l=2 m= 4 s_z=-0.5)
     state #  18: atom   1 (Ni ), wfc  3 (l=2 m= 5 s_z=-0.5)
     state #  19: atom   1 (Ni ), wfc  4 (l=0 m= 1 s_z= 0.5)
     state #  20: atom   1 (Ni ), wfc  4 (l=0 m= 1 s_z=-0.5)
     state #  21: atom   2 (I  ), wfc  1 (l=0 m= 1 s_z= 0.5)
     state #  22: atom   2 (I  ), wfc  1 (l=0 m= 1 s_z=-0.5)
     state #  23: atom   2 (I  ), wfc  2 (l=1 m= 1 s_z= 0.5)
     state #  24: atom   2 (I  ), wfc  2 (l=1 m= 2 s_z= 0.5)
     state #  25: atom   2 (I  ), wfc  2 (l=1 m= 3 s_z= 0.5)
     state #  26: atom   2 (I  ), wfc  2 (l=1 m= 1 s_z=-0.5)
     state #  27: atom   2 (I  ), wfc  2 (l=1 m= 2 s_z=-0.5)
     state #  28: atom   2 (I  ), wfc  2 (l=1 m= 3 s_z=-0.5)
     state #  29: atom   3 (I  ), wfc  1 (l=0 m= 1 s_z= 0.5)
     state #  30: atom   3 (I  ), wfc  1 (l=0 m= 1 s_z=-0.5)
     state #  31: atom   3 (I  ), wfc  2 (l=1 m= 1 s_z= 0.5)
     state #  32: atom   3 (I  ), wfc  2 (l=1 m= 2 s_z= 0.5)
     state #  33: atom   3 (I  ), wfc  2 (l=1 m= 3 s_z= 0.5)
     state #  34: atom   3 (I  ), wfc  2 (l=1 m= 1 s_z=-0.5)
     state #  35: atom   3 (I  ), wfc  2 (l=1 m= 2 s_z=-0.5)
     state #  36: atom   3 (I  ), wfc  2 (l=1 m= 3 s_z=-0.5)

 k =   0.0000000000  0.0000000000  0.0000000000
==== e(   1) =  -105.99971 eV ====
     psi = 0.996*[#   1]+0.002*[#  23]+0.002*[#  31]
    |psi|^2 = 1.000
==== e(   2) =  -104.62916 eV ====
     psi = 0.996*[#   2]+0.002*[#  26]+0.002*[#  34]
    |psi|^2 = 1.000
==== e(   3) =   -66.47339 eV ====
     psi = 0.999*[#   3]
    |psi|^2 = 1.000
==== e(   4) =   -66.41994 eV ====
     psi = 0.789*[#   4]+0.211*[#   5]
    |psi|^2 = 1.000
==== e(   5) =   -66.41994 eV ====
     psi = 0.789*[#   5]+0.211*[#   4]
    |psi|^2 = 1.000
==== e(   6) =   -64.96404 eV ====
     psi = 0.999*[#   6]
    |psi|^2 = 1.000
==== e(   7) =   -64.95299 eV ====
     psi = 0.789*[#   7]+0.210*[#   8]
    |psi|^2 = 1.000
==== e(   8) =   -64.95299 eV ====
     psi = 0.789*[#   8]+0.210*[#   7]
    |psi|^2 = 1.000
==== e(   9) =   -15.79563 eV ====
     psi = 0.364*[#  21]+0.364*[#  29]+0.261*[#  19]+0.005*[#  23]+0.005*[#  31]
          +0.001*[#   1]
    |psi|^2 = 1.000
==== e(  10) =   -15.57079 eV ====
     psi = 0.361*[#  22]+0.361*[#  30]+0.266*[#  20]+0.005*[#  26]+0.005*[#  34]
          +0.001*[#   2]
    |psi|^2 = 1.000
==== e(  11) =   -14.85348 eV ====
     psi = 0.495*[#  21]+0.495*[#  29]+0.003*[#  23]+0.003*[#  31]
    |psi|^2 = 0.997
==== e(  12) =   -14.59725 eV ====
     psi = 0.495*[#  22]+0.495*[#  30]+0.003*[#  26]+0.003*[#  34]
    |psi|^2 = 0.997
==== e(  13) =    -6.86252 eV ====
     psi = 0.374*[#  23]+0.374*[#  31]+0.100*[#   9]+0.072*[#  19]+0.035*[#  21]
          +0.035*[#  29]+0.002*[#   1]
    |psi|^2 = 0.994
==== e(  14) =    -6.64336 eV ====
     psi = 0.381*[#  26]+0.381*[#  34]+0.078*[#  14]+0.075*[#  20]+0.039*[#  22]
          +0.039*[#  30]+0.003*[#   2]
    |psi|^2 = 0.994
==== e(  15) =    -5.81816 eV ====
     psi = 0.292*[#  13]+0.281*[#  10]+0.094*[#  12]+0.090*[#  11]+0.090*[#  24]
          +0.090*[#  32]+0.029*[#  25]+0.029*[#  33]
    |psi|^2 = 0.995
==== e(  16) =    -5.81816 eV ====
     psi = 0.292*[#  12]+0.281*[#  11]+0.094*[#  13]+0.090*[#  10]+0.090*[#  25]
          +0.090*[#  33]+0.029*[#  24]+0.029*[#  32]
    |psi|^2 = 0.995
==== e(  17) =    -4.57124 eV ====
     psi = 0.322*[#  18]+0.176*[#  27]+0.176*[#  35]+0.107*[#  17]+0.069*[#  15]
          +0.058*[#  28]+0.058*[#  36]+0.023*[#  16]
    |psi|^2 = 0.988
==== e(  18) =    -4.57124 eV ====
     psi = 0.322*[#  17]+0.176*[#  28]+0.176*[#  36]+0.107*[#  18]+0.069*[#  16]
          +0.058*[#  27]+0.058*[#  35]+0.023*[#  15]
    |psi|^2 = 0.988
==== e(  19) =    -4.28568 eV ====
     psi = 0.422*[#  11]+0.297*[#  12]+0.149*[#  10]+0.105*[#  13]+0.007*[#  25]
          +0.007*[#  33]+0.002*[#  24]+0.002*[#  32]
    |psi|^2 = 0.990
==== e(  20) =    -4.28568 eV ====
     psi = 0.422*[#  10]+0.297*[#  13]+0.149*[#  11]+0.105*[#  12]+0.007*[#  24]
          +0.007*[#  32]+0.002*[#  25]+0.002*[#  33]
    |psi|^2 = 0.990
==== e(  21) =    -3.91979 eV ====
     psi = 0.885*[#   9]+0.035*[#  23]+0.035*[#  31]+0.025*[#  19]+0.006*[#  21]
          +0.006*[#  29]
    |psi|^2 = 0.993
==== e(  22) =    -3.79161 eV ====
     psi = 0.495*[#  23]+0.495*[#  31]+0.003*[#  21]+0.003*[#  29]
    |psi|^2 = 0.995
==== e(  23) =    -3.54906 eV ====
     psi = 0.494*[#  26]+0.494*[#  34]+0.003*[#  22]+0.003*[#  30]
    |psi|^2 = 0.994
==== e(  24) =    -3.34536 eV ====
     psi = 0.534*[#  15]+0.206*[#  18]+0.165*[#  16]+0.064*[#  17]+0.007*[#  27]
          +0.007*[#  35]+0.002*[#  28]+0.002*[#  36]
    |psi|^2 = 0.986
==== e(  25) =    -3.34536 eV ====
     psi = 0.534*[#  16]+0.206*[#  17]+0.165*[#  15]+0.064*[#  18]+0.007*[#  28]
          +0.007*[#  36]+0.002*[#  27]+0.002*[#  35]
    |psi|^2 = 0.986
==== e(  26) =    -3.18518 eV ====
     psi = 0.900*[#  14]+0.025*[#  20]+0.025*[#  26]+0.025*[#  34]+0.006*[#  22]
          +0.006*[#  30]
    |psi|^2 = 0.987
==== e(  27) =    -2.88152 eV ====
     psi = 0.369*[#  24]+0.369*[#  32]+0.123*[#  25]+0.123*[#  33]
    |psi|^2 = 0.984
==== e(  28) =    -2.88152 eV ====
     psi = 0.369*[#  25]+0.369*[#  33]+0.123*[#  24]+0.123*[#  32]
    |psi|^2 = 0.984
==== e(  29) =    -2.62921 eV ====
     psi = 0.368*[#  27]+0.368*[#  35]+0.122*[#  28]+0.122*[#  36]
    |psi|^2 = 0.980
==== e(  30) =    -2.62921 eV ====
     psi = 0.368*[#  28]+0.368*[#  36]+0.122*[#  27]+0.122*[#  35]
    |psi|^2 = 0.980
==== e(  31) =    -1.98543 eV ====
     psi = 0.277*[#  25]+0.277*[#  33]+0.155*[#  12]+0.093*[#  24]+0.093*[#  32]
          +0.052*[#  13]+0.038*[#  11]+0.013*[#  10]
    |psi|^2 = 0.999
==== e(  32) =    -1.98543 eV ====
     psi = 0.277*[#  24]+0.277*[#  32]+0.155*[#  13]+0.093*[#  25]+0.093*[#  33]
          +0.052*[#  12]+0.038*[#  10]+0.013*[#  11]
    |psi|^2 = 0.999
==== e(  33) =    -0.89059 eV ====
     psi = 0.217*[#  17]+0.191*[#  28]+0.191*[#  36]+0.145*[#  16]+0.073*[#  18]
          +0.065*[#  27]+0.065*[#  35]+0.049*[#  15]
    |psi|^2 = 0.996
==== e(  34) =    -0.89059 eV ====
     psi = 0.217*[#  18]+0.191*[#  27]+0.191*[#  35]+0.145*[#  15]+0.073*[#  17]
          +0.065*[#  28]+0.065*[#  36]+0.049*[#  16]
    |psi|^2 = 0.996
==== e(  35) =     1.76643 eV ====
     psi = 0.402*[#  19]+0.058*[#  21]+0.058*[#  29]+0.053*[#  23]+0.053*[#  31]
          +0.002*[#   9]
    |psi|^2 = 0.627
==== e(  36) =     1.89902 eV ====
     psi = 0.376*[#  20]+0.055*[#  22]+0.055*[#  30]+0.052*[#  26]+0.052*[#  34]
          +0.002*[#  14]
    |psi|^2 = 0.592
==== e(  37) =     2.50453 eV ====
     psi = 0.001*[#  21]+0.001*[#  29]
    |psi|^2 = 0.004
==== e(  38) =     2.60945 eV ====
     psi = 0.002*[#  22]+0.002*[#  30]+0.001*[#  26]+0.001*[#  34]
    |psi|^2 = 0.005
==== e(  39) =     2.68437 eV ====

    |psi|^2 = 0.000
==== e(  40) =     2.75758 eV ====

    |psi|^2 = 0.000

 k =   0.0000000000  0.0721687836  0.0000000000
==== e(   1) =  -105.99971 eV ====
     psi = 0.996*[#   1]+0.002*[#  23]+0.002*[#  31]
    |psi|^2 = 1.000
==== e(   2) =  -104.62916 eV ====
     psi = 0.996*[#   2]+0.002*[#  26]+0.002*[#  34]
    |psi|^2 = 1.000
==== e(   3) =   -66.47339 eV ====
     psi = 0.999*[#   3]
    |psi|^2 = 1.000
==== e(   4) =   -66.41996 eV ====
     psi = 1.000*[#   5]
    |psi|^2 = 1.000
==== e(   5) =   -66.41995 eV ====
     psi = 1.000*[#   4]
    |psi|^2 = 1.000
==== e(   6) =   -64.96404 eV ====
     psi = 0.999*[#   6]
    |psi|^2 = 1.000
==== e(   7) =   -64.95302 eV ====
     psi = 1.000*[#   8]
    |psi|^2 = 1.000
==== e(   8) =   -64.95300 eV ====
     psi = 1.000*[#   7]
    |psi|^2 = 1.000
==== e(   9) =   -15.76528 eV ====
     psi = 0.367*[#  21]+0.367*[#  29]+0.254*[#  19]+0.005*[#  23]+0.005*[#  31]
          +0.001*[#   1]
    |psi|^2 = 1.000
==== e(  10) =   -15.53998 eV ====
     psi = 0.363*[#  22]+0.363*[#  30]+0.259*[#  20]+0.005*[#  26]+0.005*[#  34]
          +0.001*[#   2]
    |psi|^2 = 1.000
==== e(  11) =   -14.83680 eV ====
     psi = 0.494*[#  21]+0.494*[#  29]+0.003*[#  23]+0.003*[#  31]
    |psi|^2 = 0.997
==== e(  12) =   -14.58003 eV ====
     psi = 0.494*[#  22]+0.494*[#  30]+0.003*[#  26]+0.003*[#  34]
    |psi|^2 = 0.997
==== e(  13) =    -6.83131 eV ====
     psi = 0.373*[#  23]+0.373*[#  31]+0.099*[#   9]+0.074*[#  19]+0.036*[#  21]
          +0.036*[#  29]+0.002*[#   1]
    |psi|^2 = 0.994
==== e(  14) =    -6.61285 eV ====
     psi = 0.380*[#  26]+0.380*[#  34]+0.078*[#  20]+0.076*[#  14]+0.039*[#  22]
          +0.039*[#  30]+0.002*[#   2]
    |psi|^2 = 0.994
==== e(  15) =    -5.85744 eV ====
     psi = 0.378*[#  12]+0.350*[#  11]+0.125*[#  25]+0.125*[#  33]+0.008*[#  23]
          +0.008*[#  31]
    |psi|^2 = 0.995
==== e(  16) =    -5.81482 eV ====
     psi = 0.378*[#  13]+0.378*[#  10]+0.120*[#  24]+0.120*[#  32]
    |psi|^2 = 0.995
==== e(  17) =    -4.68595 eV ====
     psi = 0.389*[#  17]+0.233*[#  28]+0.233*[#  36]+0.081*[#  16]+0.026*[#  26]
          +0.026*[#  34]
    |psi|^2 = 0.988
==== e(  18) =    -4.56804 eV ====
     psi = 0.417*[#  18]+0.238*[#  27]+0.238*[#  35]+0.095*[#  15]
    |psi|^2 = 0.988
==== e(  19) =    -4.33254 eV ====
     psi = 0.570*[#  11]+0.354*[#  12]+0.025*[#  25]+0.025*[#  33]+0.006*[#   9]
          +0.003*[#  23]+0.003*[#  31]
    |psi|^2 = 0.989
==== e(  20) =    -4.30342 eV ====
     psi = 0.550*[#  10]+0.398*[#  13]+0.021*[#  24]+0.021*[#  32]
    |psi|^2 = 0.990
==== e(  21) =    -3.96203 eV ====
     psi = 0.838*[#   9]+0.029*[#  19]+0.028*[#  23]+0.028*[#  31]+0.019*[#  25]
          +0.019*[#  33]+0.008*[#  21]+0.008*[#  29]+0.007*[#  11]+0.006*[#  12]

    |psi|^2 = 0.992
==== e(  22) =    -3.74010 eV ====
     psi = 0.483*[#  23]+0.483*[#  31]+0.017*[#  12]+0.003*[#  25]+0.003*[#  33]
          +0.002*[#  21]+0.002*[#  29]
    |psi|^2 = 0.994
==== e(  23) =    -3.48254 eV ====
     psi = 0.414*[#  26]+0.414*[#  34]+0.071*[#  17]+0.046*[#  16]+0.017*[#  28]
          +0.017*[#  36]+0.007*[#  14]+0.002*[#  22]+0.002*[#  30]
    |psi|^2 = 0.990
==== e(  24) =    -3.43081 eV ====
     psi = 0.479*[#  16]+0.119*[#  17]+0.096*[#  14]+0.086*[#  28]+0.086*[#  36]
          +0.053*[#  26]+0.053*[#  34]+0.007*[#  20]+0.003*[#  22]+0.003*[#  30]

    |psi|^2 = 0.985
==== e(  25) =    -3.39693 eV ====
     psi = 0.657*[#  15]+0.245*[#  18]+0.042*[#  27]+0.042*[#  35]
    |psi|^2 = 0.985
==== e(  26) =    -3.25080 eV ====
     psi = 0.650*[#  14]+0.137*[#  16]+0.067*[#  17]+0.032*[#  28]+0.032*[#  36]
          +0.025*[#  20]+0.014*[#  26]+0.014*[#  34]+0.007*[#  22]+0.007*[#  30]

    |psi|^2 = 0.986
==== e(  27) =    -3.03971 eV ====
     psi = 0.436*[#  25]+0.436*[#  33]+0.044*[#   9]+0.029*[#  12]+0.011*[#  23]
          +0.011*[#  31]+0.008*[#  11]+0.005*[#  19]+0.002*[#  21]+0.002*[#  29]

    |psi|^2 = 0.985
==== e(  28) =    -2.91854 eV ====
     psi = 0.474*[#  24]+0.474*[#  32]+0.029*[#  13]+0.006*[#  10]
    |psi|^2 = 0.983
==== e(  29) =    -2.70435 eV ====
     psi = 0.362*[#  28]+0.362*[#  36]+0.150*[#  14]+0.046*[#  17]+0.028*[#  16]
          +0.016*[#  26]+0.016*[#  34]+0.001*[#  20]
    |psi|^2 = 0.984
==== e(  30) =    -2.63595 eV ====
     psi = 0.452*[#  27]+0.452*[#  35]+0.050*[#  18]+0.026*[#  15]
    |psi|^2 = 0.980
==== e(  31) =    -2.16140 eV ====
     psi = 0.362*[#  25]+0.362*[#  33]+0.208*[#  12]+0.056*[#  11]+0.002*[#  21]
          +0.002*[#  29]
    |psi|^2 = 0.992
==== e(  32) =    -2.01124 eV ====
     psi = 0.375*[#  24]+0.375*[#  32]+0.189*[#  13]+0.059*[#  10]
    |psi|^2 = 0.998
==== e(  33) =    -1.04512 eV ====
     psi = 0.295*[#  17]+0.237*[#  28]+0.237*[#  36]+0.212*[#  16]+0.002*[#  22]
          +0.002*[#  30]
    |psi|^2 = 0.985
==== e(  34) =    -0.91319 eV ====
     psi = 0.277*[#  18]+0.256*[#  27]+0.256*[#  35]+0.207*[#  15]
    |psi|^2 = 0.995
==== e(  35) =     1.91176 eV ====
     psi = 0.372*[#  19]+0.050*[#  21]+0.050*[#  29]+0.047*[#  23]+0.047*[#  31]
          +0.008*[#  25]+0.008*[#  33]
    |psi|^2 = 0.585
==== e(  36) =     2.04241 eV ====
     psi = 0.343*[#  20]+0.047*[#  22]+0.047*[#  30]+0.046*[#  26]+0.046*[#  34]
          +0.008*[#  28]+0.008*[#  36]
    |psi|^2 = 0.545
==== e(  37) =     2.70347 eV ====
     psi = 0.001*[#  25]+0.001*[#  33]
    |psi|^2 = 0.006
==== e(  38) =     2.75402 eV ====
     psi = 0.002*[#  25]+0.002*[#  33]
    |psi|^2 = 0.007
==== e(  39) =     2.79187 eV ====

    |psi|^2 = 0.003
==== e(  40) =     2.85832 eV ====
     psi = 0.004*[#  28]+0.004*[#  36]+0.001*[#  16]+0.001*[#  17]+0.001*[#  22]
          +0.001*[#  30]
    |psi|^2 = 0.015

 k =   0.0000000000  0.1443375673  0.0000000000
==== e(   1) =  -105.99971 eV ====
     psi = 0.995*[#   1]+0.002*[#  23]+0.002*[#  31]
    |psi|^2 = 1.000
==== e(   2) =  -104.62916 eV ====
     psi = 0.995*[#   2]+0.002*[#  26]+0.002*[#  34]
    |psi|^2 = 1.000
==== e(   3) =   -66.47338 eV ====
     psi = 0.999*[#   3]
    |psi|^2 = 1.000
==== e(   4) =   -66.42001 eV ====
     psi = 0.999*[#   5]
    |psi|^2 = 1.000
==== e(   5) =   -66.41996 eV ====
     psi = 1.000*[#   4]
    |psi|^2 = 1.000
==== e(   6) =   -64.96403 eV ====
     psi = 0.999*[#   6]
    |psi|^2 = 1.000
==== e(   7) =   -64.95307 eV ====
     psi = 0.999*[#   8]
    |psi|^2 = 1.000
==== e(   8) =   -64.95301 eV ====
     psi = 0.999*[#   7]
    |psi|^2 = 1.000
==== e(   9) =   -15.67628 eV ====
     psi = 0.374*[#  21]+0.374*[#  29]+0.234*[#  19]+0.005*[#  23]+0.005*[#  31]
          +0.003*[#  25]+0.003*[#  33]
    |psi|^2 = 1.000
==== e(  10) =   -15.44958 eV ====
     psi = 0.371*[#  22]+0.371*[#  30]+0.239*[#  20]+0.005*[#  26]+0.005*[#  34]
          +0.003*[#  28]+0.003*[#  36]
    |psi|^2 = 1.000
==== e(  11) =   -14.78913 eV ====
     psi = 0.492*[#  21]+0.492*[#  29]+0.003*[#  11]+0.003*[#  25]+0.003*[#  33]
          +0.002*[#  23]+0.002*[#  31]+0.001*[#  12]
    |psi|^2 = 0.997
==== e(  12) =   -14.53077 eV ====
     psi = 0.492*[#  22]+0.492*[#  30]+0.003*[#  28]+0.003*[#  36]+0.002*[#  16]
          +0.002*[#  26]+0.002*[#  34]
    |psi|^2 = 0.997
==== e(  13) =    -6.74324 eV ====
     psi = 0.370*[#  23]+0.370*[#  31]+0.093*[#   9]+0.081*[#  19]+0.036*[#  21]
          +0.036*[#  29]+0.003*[#  25]+0.003*[#  33]+0.002*[#   1]
    |psi|^2 = 0.994
==== e(  14) =    -6.52735 eV ====
     psi = 0.375*[#  26]+0.375*[#  34]+0.085*[#  20]+0.071*[#  14]+0.040*[#  22]
          +0.040*[#  30]+0.003*[#  28]+0.003*[#  36]+0.002*[#   2]
    |psi|^2 = 0.994
==== e(  15) =    -5.96279 eV ====
     psi = 0.358*[#  12]+0.296*[#  11]+0.143*[#  25]+0.143*[#  33]+0.027*[#  23]
          +0.027*[#  31]
    |psi|^2 = 0.994
==== e(  16) =    -5.80569 eV ====
     psi = 0.397*[#  10]+0.354*[#  13]+0.121*[#  24]+0.121*[#  32]
    |psi|^2 = 0.995
==== e(  17) =    -4.96342 eV ====
     psi = 0.318*[#  17]+0.249*[#  28]+0.249*[#  36]+0.056*[#  26]+0.056*[#  34]
          +0.056*[#  16]+0.001*[#  22]+0.001*[#  30]
    |psi|^2 = 0.986
==== e(  18) =    -4.55903 eV ====
     psi = 0.381*[#  18]+0.250*[#  27]+0.250*[#  35]+0.105*[#  15]
    |psi|^2 = 0.987
==== e(  19) =    -4.54805 eV ====
     psi = 0.456*[#  11]+0.182*[#  12]+0.122*[#  25]+0.122*[#  33]+0.070*[#   9]
          +0.012*[#  19]+0.005*[#  23]+0.005*[#  31]+0.005*[#  21]+0.005*[#  29]

    |psi|^2 = 0.986
==== e(  20) =    -4.35131 eV ====
     psi = 0.494*[#  10]+0.388*[#  13]+0.054*[#  24]+0.054*[#  32]
    |psi|^2 = 0.989
==== e(  21) =    -4.07020 eV ====
     psi = 0.608*[#   9]+0.128*[#  11]+0.087*[#  12]+0.044*[#  25]+0.044*[#  33]
          +0.033*[#  19]+0.014*[#  23]+0.014*[#  31]+0.009*[#  21]+0.009*[#  29]

    |psi|^2 = 0.990
==== e(  22) =    -3.86764 eV ====
     psi = 0.253*[#  28]+0.253*[#  36]+0.227*[#  16]+0.165*[#  14]+0.032*[#  20]
          +0.023*[#  17]+0.011*[#  22]+0.011*[#  30]+0.003*[#  26]+0.003*[#  34]

    |psi|^2 = 0.981
==== e(  23) =    -3.61842 eV ====
     psi = 0.455*[#  23]+0.455*[#  31]+0.037*[#  12]+0.019*[#  25]+0.019*[#  33]
          +0.003*[#   9]+0.001*[#  21]+0.001*[#  29]
    |psi|^2 = 0.991
==== e(  24) =    -3.52987 eV ====
     psi = 0.568*[#  15]+0.196*[#  18]+0.111*[#  27]+0.111*[#  35]
    |psi|^2 = 0.985
==== e(  25) =    -3.35154 eV ====
     psi = 0.407*[#  26]+0.407*[#  34]+0.050*[#  17]+0.044*[#  28]+0.044*[#  36]
          +0.019*[#  14]+0.010*[#  16]+0.001*[#  20]+0.001*[#  22]+0.001*[#  30]

    |psi|^2 = 0.987
==== e(  26) =    -3.32581 eV ====
     psi = 0.275*[#  25]+0.275*[#  33]+0.209*[#   9]+0.105*[#  12]+0.039*[#  23]
          +0.039*[#  31]+0.035*[#  11]+0.006*[#  19]+0.003*[#  21]+0.003*[#  29]

    |psi|^2 = 0.988
==== e(  27) =    -3.29785 eV ====
     psi = 0.358*[#  16]+0.327*[#  14]+0.166*[#  17]+0.029*[#  26]+0.029*[#  34]
          +0.025*[#  28]+0.025*[#  36]+0.016*[#  20]+0.004*[#  22]+0.004*[#  30]

    |psi|^2 = 0.984
==== e(  28) =    -3.02917 eV ====
     psi = 0.427*[#  24]+0.427*[#  32]+0.108*[#  13]+0.019*[#  10]
    |psi|^2 = 0.982
==== e(  29) =    -2.79725 eV ====
     psi = 0.399*[#  14]+0.170*[#  28]+0.170*[#  36]+0.118*[#  17]+0.059*[#  16]
          +0.034*[#  26]+0.034*[#  34]
    |psi|^2 = 0.989
==== e(  30) =    -2.67036 eV ====
     psi = 0.370*[#  27]+0.370*[#  35]+0.171*[#  18]+0.069*[#  15]
    |psi|^2 = 0.981
==== e(  31) =    -2.57953 eV ====
     psi = 0.330*[#  25]+0.330*[#  33]+0.221*[#  12]+0.075*[#  11]+0.007*[#  23]
          +0.007*[#  31]+0.006*[#   9]+0.006*[#  21]+0.006*[#  29]
    |psi|^2 = 0.986
==== e(  32) =    -2.07237 eV ====
     psi = 0.385*[#  24]+0.385*[#  32]+0.144*[#  13]+0.083*[#  10]
    |psi|^2 = 0.998
==== e(  33) =    -1.36016 eV ====
     psi = 0.308*[#  17]+0.269*[#  16]+0.186*[#  28]+0.186*[#  36]+0.009*[#  26]
          +0.009*[#  34]+0.005*[#  22]+0.005*[#  30]+0.001*[#  14]
    |psi|^2 = 0.978
==== e(  34) =    -0.96545 eV ====
     psi = 0.255*[#  27]+0.255*[#  35]+0.244*[#  15]+0.240*[#  18]
    |psi|^2 = 0.993
==== e(  35) =     2.23680 eV ====
     psi = 0.317*[#  19]+0.037*[#  23]+0.037*[#  31]+0.035*[#  21]+0.035*[#  29]
          +0.020*[#  25]+0.020*[#  33]
    |psi|^2 = 0.502
==== e(  36) =     2.36573 eV ====
     psi = 0.276*[#  20]+0.033*[#  26]+0.033*[#  34]+0.031*[#  22]+0.031*[#  30]
          +0.018*[#  28]+0.018*[#  36]
    |psi|^2 = 0.442
==== e(  37) =     2.82120 eV ====
     psi = 0.003*[#  19]+0.001*[#  25]+0.001*[#  33]
    |psi|^2 = 0.007
==== e(  38) =     2.90517 eV ====
     psi = 0.002*[#  20]+0.001*[#  17]
    |psi|^2 = 0.007
==== e(  39) =     2.95526 eV ====
     psi = 0.087*[#  19]+0.015*[#  25]+0.015*[#  33]+0.009*[#  21]+0.009*[#  29]
          +0.009*[#  23]+0.009*[#  31]+0.002*[#   9]
    |psi|^2 = 0.157
==== e(  40) =     3.10069 eV ====
     psi = 0.098*[#  20]+0.019*[#  28]+0.019*[#  36]+0.011*[#  26]+0.011*[#  34]
          +0.010*[#  22]+0.010*[#  30]+0.003*[#  14]+0.001*[#  16]
    |psi|^2 = 0.183

 k =   0.0000000000  0.2165063509  0.0000000000
==== e(   1) =  -105.99971 eV ====
     psi = 0.995*[#   1]+0.001*[#  23]+0.001*[#  31]
    |psi|^2 = 1.000
==== e(   2) =  -104.62915 eV ====
     psi = 0.995*[#   2]+0.001*[#  26]+0.001*[#  34]
    |psi|^2 = 1.000
==== e(   3) =   -66.47337 eV ====
     psi = 0.999*[#   3]
    |psi|^2 = 1.000
==== e(   4) =   -66.42009 eV ====
     psi = 0.999*[#   5]
    |psi|^2 = 1.000
==== e(   5) =   -66.41998 eV ====
     psi = 0.999*[#   4]
    |psi|^2 = 1.000
==== e(   6) =   -64.96401 eV ====
     psi = 0.999*[#   6]
    |psi|^2 = 1.000
==== e(   7) =   -64.95316 eV ====
     psi = 0.999*[#   8]
    |psi|^2 = 1.000
==== e(   8) =   -64.95304 eV ====
     psi = 0.999*[#   7]
    |psi|^2 = 1.000
==== e(   9) =   -15.53499 eV ====
     psi = 0.387*[#  21]+0.387*[#  29]+0.203*[#  19]+0.006*[#  25]+0.006*[#  33]
          +0.005*[#  23]+0.005*[#  31]
    |psi|^2 = 0.999
==== e(  10) =   -15.30588 eV ====
     psi = 0.384*[#  22]+0.384*[#  30]+0.208*[#  20]+0.006*[#  28]+0.006*[#  36]
          +0.005*[#  26]+0.005*[#  34]
    |psi|^2 = 0.999
==== e(  11) =   -14.71764 eV ====
     psi = 0.489*[#  21]+0.489*[#  29]+0.005*[#  11]+0.004*[#  25]+0.004*[#  33]
          +0.003*[#  12]+0.002*[#  23]+0.002*[#  31]
    |psi|^2 = 0.998
==== e(  12) =   -14.45685 eV ====
     psi = 0.489*[#  22]+0.489*[#  30]+0.004*[#  16]+0.004*[#  28]+0.004*[#  36]
          +0.002*[#  17]+0.002*[#  26]+0.002*[#  34]
    |psi|^2 = 0.998
==== e(  13) =    -6.62205 eV ====
     psi = 0.355*[#  23]+0.355*[#  31]+0.097*[#  19]+0.079*[#   9]+0.039*[#  21]
          +0.039*[#  29]+0.013*[#  25]+0.013*[#  33]+0.002*[#  12]+0.002*[#   1]
          +0.001*[#  11]
    |psi|^2 = 0.995
==== e(  14) =    -6.41233 eV ====
     psi = 0.357*[#  26]+0.357*[#  34]+0.103*[#  20]+0.058*[#  14]+0.043*[#  22]
          +0.043*[#  30]+0.014*[#  28]+0.014*[#  36]+0.002*[#   2]+0.002*[#  17]

    |psi|^2 = 0.994
==== e(  15) =    -6.10955 eV ====
     psi = 0.326*[#  12]+0.221*[#  11]+0.177*[#  25]+0.177*[#  33]+0.046*[#  23]
          +0.046*[#  31]
    |psi|^2 = 0.992
==== e(  16) =    -5.79329 eV ====
     psi = 0.430*[#  10]+0.318*[#  13]+0.124*[#  24]+0.124*[#  32]
    |psi|^2 = 0.995
==== e(  17) =    -5.33304 eV ====
     psi = 0.287*[#  28]+0.287*[#  36]+0.238*[#  17]+0.067*[#  26]+0.067*[#  34]
          +0.025*[#  16]+0.004*[#  14]+0.003*[#  20]+0.002*[#  22]+0.002*[#  30]

    |psi|^2 = 0.982
==== e(  18) =    -5.02277 eV ====
     psi = 0.292*[#  11]+0.235*[#  25]+0.235*[#  33]+0.109*[#   9]+0.034*[#  12]
          +0.028*[#  19]+0.015*[#  23]+0.015*[#  31]+0.010*[#  21]+0.010*[#  29]

    |psi|^2 = 0.983
==== e(  19) =    -4.54592 eV ====
     psi = 0.323*[#  18]+0.269*[#  27]+0.269*[#  35]+0.125*[#  15]
    |psi|^2 = 0.986
==== e(  20) =    -4.45225 eV ====
     psi = 0.298*[#  28]+0.298*[#  36]+0.158*[#  16]+0.121*[#  14]+0.037*[#  20]
          +0.022*[#  26]+0.022*[#  34]+0.013*[#  22]+0.013*[#  30]
    |psi|^2 = 0.983
==== e(  21) =    -4.41498 eV ====
     psi = 0.411*[#  10]+0.370*[#  13]+0.104*[#  24]+0.104*[#  32]
    |psi|^2 = 0.988
==== e(  22) =    -4.15521 eV ====
     psi = 0.395*[#   9]+0.316*[#  11]+0.162*[#  12]+0.029*[#  25]+0.029*[#  33]
          +0.027*[#  19]+0.008*[#  21]+0.008*[#  29]+0.007*[#  23]+0.007*[#  31]

    |psi|^2 = 0.989
==== e(  23) =    -3.70311 eV ====
     psi = 0.473*[#  15]+0.181*[#  27]+0.181*[#  35]+0.149*[#  18]
    |psi|^2 = 0.984
==== e(  24) =    -3.55792 eV ====
     psi = 0.337*[#  23]+0.337*[#  31]+0.142*[#  25]+0.142*[#  33]+0.017*[#  12]
          +0.009*[#   9]
    |psi|^2 = 0.983
==== e(  25) =    -3.52868 eV ====
     psi = 0.361*[#   9]+0.221*[#  12]+0.108*[#  25]+0.108*[#  33]+0.072*[#  23]
          +0.072*[#  31]+0.044*[#  11]+0.002*[#  19]+0.002*[#  21]+0.002*[#  29]

    |psi|^2 = 0.993
==== e(  26) =    -3.34900 eV ====
     psi = 0.256*[#  16]+0.189*[#  14]+0.186*[#  17]+0.106*[#  26]+0.106*[#  34]
          +0.060*[#  28]+0.060*[#  36]+0.013*[#  20]+0.002*[#  22]+0.002*[#  30]

    |psi|^2 = 0.981
==== e(  27) =    -3.30090 eV ====
     psi = 0.292*[#  26]+0.292*[#  34]+0.141*[#  16]+0.082*[#  14]+0.072*[#  17]
          +0.048*[#  28]+0.048*[#  36]+0.004*[#  20]+0.001*[#  22]+0.001*[#  30]

    |psi|^2 = 0.984
==== e(  28) =    -3.20472 eV ====
     psi = 0.367*[#  24]+0.367*[#  32]+0.214*[#  13]+0.033*[#  10]
    |psi|^2 = 0.981
==== e(  29) =    -2.96377 eV ====
     psi = 0.225*[#  12]+0.206*[#  25]+0.206*[#  33]+0.111*[#  11]+0.094*[#  23]
          +0.094*[#  31]+0.038*[#   9]+0.009*[#  21]+0.009*[#  29]
    |psi|^2 = 0.993
==== e(  30) =    -2.85811 eV ====
     psi = 0.527*[#  14]+0.171*[#  17]+0.080*[#  28]+0.080*[#  36]+0.052*[#  16]
          +0.040*[#  26]+0.040*[#  34]
    |psi|^2 = 0.991
==== e(  31) =    -2.74809 eV ====
     psi = 0.325*[#  18]+0.281*[#  27]+0.281*[#  35]+0.094*[#  15]
    |psi|^2 = 0.981
==== e(  32) =    -2.13824 eV ====
     psi = 0.392*[#  24]+0.392*[#  32]+0.122*[#  10]+0.092*[#  13]
    |psi|^2 = 0.997
==== e(  33) =    -1.58996 eV ====
     psi = 0.343*[#  16]+0.310*[#  17]+0.114*[#  28]+0.114*[#  36]+0.038*[#  26]
          +0.038*[#  34]+0.009*[#  22]+0.009*[#  30]+0.006*[#  14]
    |psi|^2 = 0.982
==== e(  34) =    -1.01815 eV ====
     psi = 0.297*[#  15]+0.252*[#  27]+0.252*[#  35]+0.191*[#  18]
    |psi|^2 = 0.993
==== e(  35) =     2.43350 eV ====
     psi = 0.365*[#  19]+0.052*[#  25]+0.052*[#  33]+0.034*[#  23]+0.034*[#  31]
          +0.029*[#  21]+0.029*[#  29]+0.001*[#   9]+0.001*[#  12]+0.001*[#  11]

    |psi|^2 = 0.601
==== e(  36) =     2.63518 eV ====
     psi = 0.342*[#  20]+0.055*[#  28]+0.055*[#  36]+0.033*[#  26]+0.033*[#  34]
          +0.027*[#  22]+0.027*[#  30]+0.002*[#  16]+0.002*[#  14]+0.001*[#  17]

    |psi|^2 = 0.578
==== e(  37) =     2.67075 eV ====
     psi = 0.030*[#  19]+0.004*[#  23]+0.004*[#  31]+0.003*[#  21]+0.003*[#  29]

    |psi|^2 = 0.046
==== e(  38) =     2.76156 eV ====
     psi = 0.026*[#  20]+0.004*[#  26]+0.004*[#  34]+0.003*[#  22]+0.003*[#  30]

    |psi|^2 = 0.041
==== e(  39) =     3.00446 eV ====
     psi = 0.002*[#  12]+0.001*[#  19]
    |psi|^2 = 0.006
==== e(  40) =     3.10413 eV ====
     psi = 0.004*[#  17]+0.004*[#  20]
    |psi|^2 = 0.012

 k =   0.0000000000  0.2886751346  0.0000000000
==== e(   1) =  -105.99971 eV ====
     psi = 0.995*[#   1]+0.001*[#  23]+0.001*[#  25]+0.001*[#  31]+0.001*[#  33]

    |psi|^2 = 1.000
==== e(   2) =  -104.62915 eV ====
     psi = 0.995*[#   2]+0.001*[#  26]+0.001*[#  28]+0.001*[#  34]+0.001*[#  36]

    |psi|^2 = 1.000
==== e(   3) =   -66.47335 eV ====
     psi = 0.999*[#   3]
    |psi|^2 = 1.000
==== e(   4) =   -66.42018 eV ====
     psi = 0.999*[#   5]
    |psi|^2 = 1.000
==== e(   5) =   -66.42000 eV ====
     psi = 0.999*[#   4]
    |psi|^2 = 1.000
==== e(   6) =   -64.96399 eV ====
     psi = 0.999*[#   6]
    |psi|^2 = 1.000
==== e(   7) =   -64.95327 eV ====
     psi = 0.999*[#   8]
    |psi|^2 = 1.000
==== e(   8) =   -64.95306 eV ====
     psi = 0.999*[#   7]
    |psi|^2 = 1.000
==== e(   9) =   -15.35280 eV ====
     psi = 0.405*[#  21]+0.405*[#  29]+0.163*[#  19]+0.008*[#  25]+0.008*[#  33]
          +0.005*[#  23]+0.005*[#  31]
    |psi|^2 = 0.999
==== e(  10) =   -15.12024 eV ====
     psi = 0.402*[#  22]+0.402*[#  30]+0.167*[#  20]+0.008*[#  28]+0.008*[#  36]
          +0.005*[#  26]+0.005*[#  34]
    |psi|^2 = 0.999
==== e(  11) =   -14.63456 eV ====
     psi = 0.487*[#  21]+0.487*[#  29]+0.008*[#  11]+0.004*[#  25]+0.004*[#  33]
          +0.004*[#  12]
    |psi|^2 = 0.998
==== e(  12) =   -14.37091 eV ====
     psi = 0.488*[#  22]+0.488*[#  30]+0.007*[#  16]+0.004*[#  28]+0.004*[#  36]
          +0.003*[#  17]
    |psi|^2 = 0.998
==== e(  13) =    -6.55595 eV ====
     psi = 0.277*[#  23]+0.277*[#  31]+0.135*[#  19]+0.075*[#  25]+0.075*[#  33]
          +0.045*[#  21]+0.045*[#  29]+0.039*[#   9]+0.020*[#  12]+0.004*[#  11]
          +0.002*[#   1]
    |psi|^2 = 0.994
==== e(  14) =    -6.35680 eV ====
     psi = 0.279*[#  26]+0.279*[#  34]+0.142*[#  20]+0.076*[#  28]+0.076*[#  36]
          +0.048*[#  22]+0.048*[#  30]+0.028*[#  14]+0.011*[#  17]+0.005*[#  16]
          +0.002*[#   2]
    |psi|^2 = 0.994
==== e(  15) =    -6.27849 eV ====
     psi = 0.255*[#  12]+0.225*[#  25]+0.225*[#  33]+0.136*[#  11]+0.071*[#  23]
          +0.071*[#  31]+0.004*[#   9]
    |psi|^2 = 0.989
==== e(  16) =    -5.78123 eV ====
     psi = 0.472*[#  10]+0.272*[#  13]+0.126*[#  24]+0.126*[#  32]
    |psi|^2 = 0.995
==== e(  17) =    -5.74610 eV ====
     psi = 0.312*[#  28]+0.312*[#  36]+0.141*[#  17]+0.093*[#  26]+0.093*[#  34]
          +0.015*[#  14]+0.007*[#  16]+0.002*[#  20]+0.002*[#  22]+0.002*[#  30]

    |psi|^2 = 0.979
==== e(  18) =    -5.51802 eV ====
     psi = 0.240*[#  11]+0.219*[#  25]+0.219*[#  33]+0.123*[#   9]+0.078*[#  23]
          +0.078*[#  31]+0.018*[#  19]+0.005*[#  21]+0.005*[#  29]
    |psi|^2 = 0.985
==== e(  19) =    -4.92443 eV ====
     psi = 0.273*[#  28]+0.273*[#  36]+0.123*[#  16]+0.108*[#  14]+0.078*[#  26]
          +0.078*[#  34]+0.020*[#  20]+0.019*[#  17]+0.006*[#  22]+0.006*[#  30]

    |psi|^2 = 0.986
==== e(  20) =    -4.53117 eV ====
     psi = 0.290*[#  27]+0.290*[#  35]+0.247*[#  18]+0.158*[#  15]
    |psi|^2 = 0.986
==== e(  21) =    -4.47536 eV ====
     psi = 0.343*[#  13]+0.313*[#  10]+0.165*[#  24]+0.165*[#  32]
    |psi|^2 = 0.987
==== e(  22) =    -4.21209 eV ====
     psi = 0.425*[#  11]+0.339*[#   9]+0.125*[#  12]+0.028*[#  25]+0.028*[#  33]
          +0.022*[#  19]+0.007*[#  21]+0.007*[#  29]+0.004*[#  23]+0.004*[#  31]

    |psi|^2 = 0.988
==== e(  23) =    -3.90498 eV ====
     psi = 0.269*[#  12]+0.221*[#  25]+0.221*[#  33]+0.124*[#  23]+0.124*[#  31]
          +0.017*[#   9]+0.003*[#  21]+0.003*[#  29]+0.002*[#  19]
    |psi|^2 = 0.984
==== e(  24) =    -3.88210 eV ====
     psi = 0.380*[#  15]+0.246*[#  27]+0.246*[#  35]+0.110*[#  18]
    |psi|^2 = 0.983
==== e(  25) =    -3.60197 eV ====
     psi = 0.421*[#   9]+0.138*[#  12]+0.115*[#  23]+0.115*[#  31]+0.074*[#  11]
          +0.064*[#  25]+0.064*[#  33]+0.002*[#  19]
    |psi|^2 = 0.994
==== e(  26) =    -3.50942 eV ====
     psi = 0.234*[#  26]+0.234*[#  34]+0.187*[#  17]+0.114*[#  28]+0.114*[#  36]
          +0.049*[#  14]+0.039*[#  16]+0.008*[#  20]
    |psi|^2 = 0.981
==== e(  27) =    -3.42100 eV ====
     psi = 0.328*[#  13]+0.304*[#  24]+0.304*[#  32]+0.046*[#  10]
    |psi|^2 = 0.981
==== e(  28) =    -3.31357 eV ====
     psi = 0.376*[#  16]+0.205*[#  14]+0.127*[#  17]+0.115*[#  26]+0.115*[#  34]
          +0.014*[#  28]+0.014*[#  36]+0.011*[#  20]+0.003*[#  22]+0.003*[#  30]

    |psi|^2 = 0.983
==== e(  29) =    -2.95962 eV ====
     psi = 0.267*[#  23]+0.267*[#  31]+0.175*[#  12]+0.103*[#  11]+0.060*[#  25]
          +0.060*[#  33]+0.049*[#   9]+0.007*[#  21]+0.007*[#  29]
    |psi|^2 = 0.995
==== e(  30) =    -2.91076 eV ====
     psi = 0.571*[#  14]+0.200*[#  17]+0.049*[#  16]+0.045*[#  26]+0.045*[#  34]
          +0.040*[#  28]+0.040*[#  36]+0.001*[#  20]
    |psi|^2 = 0.992
==== e(  31) =    -2.86029 eV ====
     psi = 0.486*[#  18]+0.198*[#  27]+0.198*[#  35]+0.101*[#  15]
    |psi|^2 = 0.984
==== e(  32) =    -2.19089 eV ====
     psi = 0.391*[#  24]+0.391*[#  32]+0.165*[#  10]+0.051*[#  13]
    |psi|^2 = 0.998
==== e(  33) =    -1.61348 eV ====
     psi = 0.375*[#  16]+0.290*[#  17]+0.088*[#  26]+0.088*[#  34]+0.058*[#  28]
          +0.058*[#  36]+0.011*[#  14]+0.010*[#  22]+0.010*[#  30]
    |psi|^2 = 0.986
==== e(  34) =    -1.05448 eV ====
     psi = 0.351*[#  15]+0.248*[#  27]+0.248*[#  35]+0.146*[#  18]
    |psi|^2 = 0.993
==== e(  35) =     1.95439 eV ====
     psi = 0.308*[#  19]+0.059*[#  25]+0.059*[#  33]+0.022*[#  23]+0.022*[#  31]
          +0.016*[#  21]+0.016*[#  29]+0.003*[#  12]+0.001*[#   1]+0.001*[#   9]

    |psi|^2 = 0.507
==== e(  36) =     2.15447 eV ====
     psi = 0.278*[#  20]+0.060*[#  28]+0.060*[#  36]+0.020*[#  26]+0.020*[#  34]
          +0.014*[#  22]+0.014*[#  30]+0.004*[#  17]+0.002*[#  14]+0.001*[#  16]

    |psi|^2 = 0.473
==== e(  37) =     2.93237 eV ====
     psi = 0.114*[#  19]+0.011*[#  23]+0.011*[#  31]+0.008*[#  21]+0.008*[#  29]
          +0.006*[#  25]+0.006*[#  33]+0.002*[#  12]+0.001*[#  11]
    |psi|^2 = 0.168
==== e(  38) =     3.05156 eV ====
     psi = 0.126*[#  20]+0.013*[#  26]+0.013*[#  34]+0.009*[#  22]+0.008*[#  28]
          +0.009*[#  30]+0.008*[#  36]+0.002*[#  16]+0.002*[#  17]
    |psi|^2 = 0.190
==== e(  39) =     3.22580 eV ====
     psi = 0.005*[#  19]+0.002*[#  12]+0.001*[#  25]+0.001*[#  33]
    |psi|^2 = 0.013
==== e(  40) =     3.33709 eV ====
     psi = 0.005*[#  17]+0.002*[#  20]
    |psi|^2 = 0.012

 k =   0.0000000000  0.3608439182  0.0000000000
==== e(   1) =  -105.99970 eV ====
     psi = 0.995*[#   1]+0.002*[#  25]+0.002*[#  33]
    |psi|^2 = 1.000
==== e(   2) =  -104.62915 eV ====
     psi = 0.995*[#   2]+0.002*[#  28]+0.002*[#  36]
    |psi|^2 = 1.000
==== e(   3) =   -66.47334 eV ====
     psi = 0.999*[#   3]
    |psi|^2 = 1.000
==== e(   4) =   -66.42028 eV ====
     psi = 0.999*[#   5]
    |psi|^2 = 1.000
==== e(   5) =   -66.42003 eV ====
     psi = 0.999*[#   4]
    |psi|^2 = 1.000
==== e(   6) =   -64.96398 eV ====
     psi = 0.999*[#   6]
    |psi|^2 = 1.000
==== e(   7) =   -64.95337 eV ====
     psi = 0.999*[#   8]
    |psi|^2 = 1.000
==== e(   8) =   -64.95309 eV ====
     psi = 0.999*[#   7]
    |psi|^2 = 1.000
==== e(   9) =   -15.14718 eV ====
     psi = 0.426*[#  21]+0.426*[#  29]+0.117*[#  19]+0.009*[#  25]+0.009*[#  33]
          +0.005*[#  23]+0.005*[#  31]
    |psi|^2 = 0.999
==== e(  10) =   -14.91015 eV ====
     psi = 0.424*[#  22]+0.424*[#  30]+0.120*[#  20]+0.009*[#  28]+0.009*[#  36]
          +0.005*[#  26]+0.005*[#  34]
    |psi|^2 = 0.999
==== e(  11) =   -14.55700 eV ====
     psi = 0.486*[#  21]+0.486*[#  29]+0.011*[#  11]+0.006*[#  12]+0.003*[#  25]
          +0.003*[#  33]+0.002*[#  19]
    |psi|^2 = 0.999
==== e(  12) =   -14.29068 eV ====
     psi = 0.487*[#  22]+0.487*[#  30]+0.010*[#  16]+0.005*[#  17]+0.003*[#  28]
          +0.003*[#  36]+0.002*[#  20]
    |psi|^2 = 0.998
==== e(  13) =    -6.78734 eV ====
     psi = 0.245*[#  25]+0.245*[#  33]+0.162*[#  19]+0.100*[#  23]+0.100*[#  31]
          +0.053*[#  12]+0.035*[#  21]+0.035*[#  29]+0.013*[#  11]+0.002*[#   1]
          +0.001*[#   9]
    |psi|^2 = 0.990
==== e(  14) =    -6.58853 eV ====
     psi = 0.240*[#  28]+0.240*[#  36]+0.175*[#  20]+0.104*[#  26]+0.104*[#  34]
          +0.039*[#  22]+0.039*[#  30]+0.033*[#  17]+0.013*[#  16]+0.002*[#   2]
          +0.001*[#  14]
    |psi|^2 = 0.990
==== e(  15) =    -6.40750 eV ====
     psi = 0.250*[#  25]+0.250*[#  33]+0.133*[#  12]+0.111*[#  23]+0.111*[#  31]
          +0.102*[#  11]+0.012*[#  19]+0.007*[#  21]+0.007*[#  29]+0.006*[#   9]

    |psi|^2 = 0.989
==== e(  16) =    -6.02593 eV ====
     psi = 0.280*[#  28]+0.280*[#  36]+0.159*[#  26]+0.159*[#  34]+0.056*[#  17]
          +0.015*[#  14]+0.010*[#  16]+0.008*[#  22]+0.008*[#  30]+0.006*[#  20]

    |psi|^2 = 0.982
==== e(  17) =    -5.77292 eV ====
     psi = 0.519*[#  10]+0.223*[#  13]+0.127*[#  24]+0.127*[#  32]
    |psi|^2 = 0.996
==== e(  18) =    -5.69675 eV ====
     psi = 0.214*[#  23]+0.214*[#  31]+0.192*[#  11]+0.132*[#   9]+0.096*[#  25]
          +0.096*[#  33]+0.041*[#  12]+0.002*[#  21]+0.002*[#  29]
    |psi|^2 = 0.989
==== e(  19) =    -5.11116 eV ====
     psi = 0.190*[#  28]+0.190*[#  36]+0.188*[#  26]+0.188*[#  34]+0.117*[#  14]
          +0.079*[#  16]+0.033*[#  17]+0.002*[#  20]
    |psi|^2 = 0.987
==== e(  20) =    -4.51748 eV ====
     psi = 0.305*[#  27]+0.305*[#  35]+0.213*[#  15]+0.162*[#  18]
    |psi|^2 = 0.986
==== e(  21) =    -4.51434 eV ====
     psi = 0.297*[#  13]+0.237*[#  24]+0.237*[#  32]+0.212*[#  10]
    |psi|^2 = 0.984
==== e(  22) =    -4.36563 eV ====
     psi = 0.236*[#  11]+0.177*[#  25]+0.177*[#  33]+0.173*[#   9]+0.077*[#  23]
          +0.077*[#  31]+0.055*[#  12]+0.008*[#  21]+0.008*[#  29]
    |psi|^2 = 0.990
==== e(  23) =    -4.20373 eV ====
     psi = 0.359*[#  12]+0.246*[#  11]+0.160*[#   9]+0.053*[#  23]+0.053*[#  31]
          +0.043*[#  25]+0.043*[#  33]+0.023*[#  19]+0.002*[#  21]+0.002*[#  29]

    |psi|^2 = 0.985
==== e(  24) =    -4.04236 eV ====
     psi = 0.311*[#  27]+0.311*[#  35]+0.282*[#  15]+0.076*[#  18]
    |psi|^2 = 0.980
==== e(  25) =    -3.76578 eV ====
     psi = 0.257*[#  26]+0.257*[#  34]+0.219*[#  17]+0.109*[#  28]+0.109*[#  36]
          +0.021*[#  14]+0.008*[#  20]+0.001*[#  22]+0.001*[#  30]
    |psi|^2 = 0.984
==== e(  26) =    -3.68743 eV ====
     psi = 0.471*[#   9]+0.178*[#  12]+0.089*[#  11]+0.089*[#  23]+0.089*[#  31]
          +0.036*[#  25]+0.036*[#  33]+0.003*[#  19]
    |psi|^2 = 0.994
==== e(  27) =    -3.64637 eV ====
     psi = 0.447*[#  13]+0.238*[#  24]+0.238*[#  32]+0.061*[#  10]
    |psi|^2 = 0.984
==== e(  28) =    -3.32861 eV ====
     psi = 0.446*[#  16]+0.239*[#  14]+0.136*[#  17]+0.066*[#  26]+0.066*[#  34]
          +0.014*[#  20]+0.004*[#  28]+0.004*[#  36]+0.003*[#  22]+0.003*[#  30]

    |psi|^2 = 0.981
==== e(  29) =    -2.98127 eV ====
     psi = 0.640*[#  18]+0.124*[#  27]+0.124*[#  35]+0.099*[#  15]
    |psi|^2 = 0.987
==== e(  30) =    -2.97219 eV ====
     psi = 0.579*[#  14]+0.225*[#  17]+0.055*[#  16]+0.043*[#  26]+0.043*[#  34]
          +0.021*[#  28]+0.021*[#  36]+0.004*[#  20]
    |psi|^2 = 0.993
==== e(  31) =    -2.79721 eV ====
     psi = 0.302*[#  23]+0.302*[#  31]+0.161*[#  12]+0.101*[#  11]+0.049*[#   9]
          +0.035*[#  25]+0.035*[#  33]+0.005*[#  21]+0.005*[#  29]
    |psi|^2 = 0.995
==== e(  32) =    -2.22753 eV ====
     psi = 0.383*[#  24]+0.383*[#  32]+0.205*[#  10]+0.027*[#  13]
    |psi|^2 = 0.998
==== e(  33) =    -1.49817 eV ====
     psi = 0.369*[#  16]+0.267*[#  17]+0.125*[#  26]+0.125*[#  34]+0.033*[#  28]
          +0.033*[#  36]+0.016*[#  14]+0.009*[#  22]+0.009*[#  30]
    |psi|^2 = 0.987
==== e(  34) =    -1.07404 eV ====
     psi = 0.397*[#  15]+0.242*[#  27]+0.242*[#  35]+0.112*[#  18]
    |psi|^2 = 0.994
==== e(  35) =     1.49123 eV ====
     psi = 0.384*[#  19]+0.072*[#  25]+0.072*[#  33]+0.020*[#  23]+0.020*[#  31]
          +0.013*[#  21]+0.013*[#  29]+0.005*[#  12]+0.001*[#   1]
    |psi|^2 = 0.602
==== e(  36) =     1.70352 eV ====
     psi = 0.360*[#  20]+0.074*[#  28]+0.074*[#  36]+0.019*[#  26]+0.019*[#  34]
          +0.013*[#  22]+0.013*[#  30]+0.008*[#  17]+0.001*[#   2]+0.001*[#  16]

    |psi|^2 = 0.582
==== e(  37) =     3.05938 eV ====
     psi = 0.084*[#  19]+0.008*[#  23]+0.008*[#  31]+0.004*[#  21]+0.004*[#  29]
          +0.004*[#  25]+0.004*[#  33]+0.004*[#  12]+0.002*[#  11]
    |psi|^2 = 0.125
==== e(  38) =     3.20636 eV ====
     psi = 0.096*[#  20]+0.010*[#  26]+0.010*[#  34]+0.006*[#  17]+0.006*[#  28]
          +0.006*[#  36]+0.005*[#  22]+0.005*[#  30]+0.004*[#  16]
    |psi|^2 = 0.147
==== e(  39) =     3.48116 eV ====
     psi = 0.023*[#  19]+0.004*[#  25]+0.004*[#  33]+0.002*[#  23]+0.002*[#  31]
          +0.002*[#  12]+0.001*[#  21]+0.001*[#  29]
    |psi|^2 = 0.040
==== e(  40) =     3.61613 eV ====
     psi = 0.020*[#  20]+0.004*[#  17]+0.003*[#  28]+0.003*[#  36]+0.002*[#  26]
          +0.002*[#  34]+0.001*[#  14]+0.001*[#  22]+0.001*[#  30]
    |psi|^2 = 0.039

 k =   0.0000000000  0.4330127019  0.0000000000
==== e(   1) =  -105.99970 eV ====
     psi = 0.995*[#   1]+0.002*[#  25]+0.002*[#  33]
    |psi|^2 = 1.000
==== e(   2) =  -104.62914 eV ====
     psi = 0.995*[#   2]+0.002*[#  28]+0.002*[#  36]
    |psi|^2 = 1.000
==== e(   3) =   -66.47332 eV ====
     psi = 0.999*[#   3]
    |psi|^2 = 1.000
==== e(   4) =   -66.42035 eV ====
     psi = 0.999*[#   5]
    |psi|^2 = 1.000
==== e(   5) =   -66.42005 eV ====
     psi = 0.999*[#   4]
    |psi|^2 = 1.000
==== e(   6) =   -64.96396 eV ====
     psi = 0.999*[#   6]
    |psi|^2 = 1.000
==== e(   7) =   -64.95346 eV ====
     psi = 0.998*[#   8]
    |psi|^2 = 1.000
==== e(   8) =   -64.95311 eV ====
     psi = 0.999*[#   7]
    |psi|^2 = 1.000
==== e(   9) =   -14.94270 eV ====
     psi = 0.451*[#  21]+0.451*[#  29]+0.070*[#  19]+0.007*[#  25]+0.007*[#  33]
          +0.004*[#  23]+0.004*[#  31]+0.001*[#  11]
    |psi|^2 = 0.999
==== e(  10) =   -14.70055 eV ====
     psi = 0.449*[#  22]+0.449*[#  30]+0.072*[#  20]+0.007*[#  28]+0.007*[#  36]
          +0.005*[#  26]+0.005*[#  34]+0.001*[#  16]
    |psi|^2 = 0.998
==== e(  11) =   -14.50489 eV ====
     psi = 0.484*[#  21]+0.484*[#  29]+0.014*[#  11]+0.007*[#  12]+0.006*[#  19]
          +0.001*[#  25]+0.001*[#  33]
    |psi|^2 = 0.999
==== e(  12) =   -14.23687 eV ====
     psi = 0.486*[#  22]+0.486*[#  30]+0.012*[#  16]+0.007*[#  20]+0.006*[#  17]
          +0.001*[#  28]+0.001*[#  36]
    |psi|^2 = 0.999
==== e(  13) =    -7.18488 eV ====
     psi = 0.309*[#  25]+0.309*[#  33]+0.180*[#  19]+0.043*[#  23]+0.043*[#  31]
          +0.032*[#  12]+0.029*[#  11]+0.021*[#  21]+0.021*[#  29]+0.002*[#   1]

    |psi|^2 = 0.991
==== e(  14) =    -6.98964 eV ====
     psi = 0.308*[#  28]+0.308*[#  36]+0.189*[#  20]+0.045*[#  26]+0.045*[#  34]
          +0.027*[#  17]+0.023*[#  22]+0.023*[#  30]+0.020*[#  16]+0.002*[#   2]

    |psi|^2 = 0.991
==== e(  15) =    -6.50805 eV ====
     psi = 0.318*[#  25]+0.318*[#  33]+0.097*[#  23]+0.097*[#  31]+0.072*[#  12]
          +0.062*[#  11]+0.009*[#  19]+0.006*[#  21]+0.006*[#  29]+0.001*[#   9]

    |psi|^2 = 0.987
==== e(  16) =    -6.21058 eV ====
     psi = 0.334*[#  28]+0.334*[#  36]+0.125*[#  26]+0.125*[#  34]+0.023*[#  17]
          +0.010*[#  16]+0.009*[#  22]+0.009*[#  30]+0.009*[#  20]+0.004*[#  14]

    |psi|^2 = 0.983
==== e(  17) =    -5.76972 eV ====
     psi = 0.560*[#  10]+0.182*[#  13]+0.127*[#  24]+0.127*[#  32]
    |psi|^2 = 0.996
==== e(  18) =    -5.63101 eV ====
     psi = 0.246*[#  23]+0.246*[#  31]+0.193*[#  11]+0.129*[#  12]+0.099*[#   9]
          +0.033*[#  25]+0.033*[#  33]+0.006*[#  21]+0.006*[#  29]
    |psi|^2 = 0.991
==== e(  19) =    -5.01204 eV ====
     psi = 0.280*[#  26]+0.280*[#  34]+0.114*[#  14]+0.104*[#  28]+0.104*[#  36]
          +0.051*[#  17]+0.050*[#  16]
    |psi|^2 = 0.986
==== e(  20) =    -4.62094 eV ====
     psi = 0.172*[#  23]+0.172*[#  31]+0.157*[#  25]+0.157*[#  33]+0.133*[#  12]
          +0.100*[#  11]+0.088*[#   9]+0.005*[#  21]+0.005*[#  29]+0.002*[#  19]

    |psi|^2 = 0.991
==== e(  21) =    -4.52129 eV ====
     psi = 0.323*[#  24]+0.323*[#  32]+0.216*[#  13]+0.118*[#  10]
    |psi|^2 = 0.980
==== e(  22) =    -4.50704 eV ====
     psi = 0.303*[#  27]+0.303*[#  35]+0.296*[#  15]+0.086*[#  18]
    |psi|^2 = 0.988
==== e(  23) =    -4.25779 eV ====
     psi = 0.380*[#  11]+0.292*[#   9]+0.207*[#  12]+0.029*[#  23]+0.029*[#  31]
          +0.020*[#  19]+0.011*[#  25]+0.011*[#  33]+0.003*[#  21]+0.003*[#  29]

    |psi|^2 = 0.984
==== e(  24) =    -4.16720 eV ====
     psi = 0.381*[#  27]+0.381*[#  35]+0.170*[#  15]+0.044*[#  18]
    |psi|^2 = 0.976
==== e(  25) =    -4.02783 eV ====
     psi = 0.280*[#  26]+0.280*[#  34]+0.213*[#  17]+0.089*[#  28]+0.089*[#  36]
          +0.018*[#  14]+0.008*[#  20]+0.004*[#  16]+0.002*[#  22]+0.002*[#  30]

    |psi|^2 = 0.986
==== e(  26) =    -3.85136 eV ====
     psi = 0.583*[#  13]+0.161*[#  24]+0.161*[#  32]+0.083*[#  10]
    |psi|^2 = 0.988
==== e(  27) =    -3.78946 eV ====
     psi = 0.458*[#   9]+0.245*[#  12]+0.107*[#  11]+0.068*[#  23]+0.068*[#  31]
          +0.020*[#  25]+0.020*[#  33]+0.010*[#  19]
    |psi|^2 = 0.994
==== e(  28) =    -3.33959 eV ====
     psi = 0.470*[#  16]+0.252*[#  14]+0.134*[#  17]+0.050*[#  26]+0.050*[#  34]
          +0.015*[#  20]+0.003*[#  22]+0.003*[#  30]+0.001*[#  28]+0.001*[#  36]

    |psi|^2 = 0.980
==== e(  29) =    -3.08505 eV ====
     psi = 0.771*[#  18]+0.097*[#  15]+0.062*[#  27]+0.062*[#  35]
    |psi|^2 = 0.991
==== e(  30) =    -3.05150 eV ====
     psi = 0.579*[#  14]+0.264*[#  17]+0.057*[#  16]+0.031*[#  26]+0.031*[#  34]
          +0.011*[#  20]+0.010*[#  28]+0.010*[#  36]
    |psi|^2 = 0.993
==== e(  31) =    -2.65229 eV ====
     psi = 0.300*[#  23]+0.300*[#  31]+0.157*[#  12]+0.107*[#  11]+0.056*[#   9]
          +0.034*[#  25]+0.034*[#  33]+0.004*[#  21]+0.004*[#  29]+0.001*[#  19]

    |psi|^2 = 0.995
==== e(  32) =    -2.25092 eV ====
     psi = 0.373*[#  24]+0.373*[#  32]+0.236*[#  10]+0.015*[#  13]
    |psi|^2 = 0.998
==== e(  33) =    -1.35778 eV ====
     psi = 0.361*[#  16]+0.252*[#  17]+0.141*[#  26]+0.141*[#  34]+0.028*[#  28]
          +0.028*[#  36]+0.021*[#  14]+0.008*[#  22]+0.008*[#  30]+0.002*[#  20]

    |psi|^2 = 0.989
==== e(  34) =    -1.08285 eV ====
     psi = 0.430*[#  15]+0.237*[#  27]+0.237*[#  35]+0.090*[#  18]
    |psi|^2 = 0.994
==== e(  35) =     1.13700 eV ====
     psi = 0.473*[#  19]+0.083*[#  25]+0.083*[#  33]+0.018*[#  23]+0.018*[#  31]
          +0.011*[#  21]+0.011*[#  29]+0.009*[#  12]+0.002*[#   1]
    |psi|^2 = 0.710
==== e(  36) =     1.36635 eV ====
     psi = 0.452*[#  20]+0.085*[#  28]+0.085*[#  36]+0.019*[#  26]+0.019*[#  34]
          +0.015*[#  17]+0.011*[#  22]+0.011*[#  30]+0.002*[#   2]
    |psi|^2 = 0.700
==== e(  37) =     3.05352 eV ====
     psi = 0.051*[#  19]+0.007*[#  23]+0.007*[#  31]+0.003*[#  12]+0.002*[#  11]
          +0.002*[#  21]+0.002*[#  29]+0.002*[#  25]+0.002*[#  33]
    |psi|^2 = 0.078
==== e(  38) =     3.20821 eV ====
     psi = 0.059*[#  20]+0.008*[#  26]+0.008*[#  34]+0.004*[#  16]+0.004*[#  17]
          +0.003*[#  28]+0.003*[#  36]+0.002*[#  22]+0.002*[#  30]
    |psi|^2 = 0.094
==== e(  39) =     3.50001 eV ====
     psi = 0.004*[#  19]+0.003*[#  25]+0.003*[#  33]+0.003*[#  12]+0.001*[#   9]

    |psi|^2 = 0.017
==== e(  40) =     3.66819 eV ====
     psi = 0.006*[#  17]+0.004*[#  28]+0.004*[#  36]+0.003*[#  20]+0.002*[#  14]

    |psi|^2 = 0.021

 k =   0.0000000000  0.5051814855  0.0000000000
==== e(   1) =  -105.99970 eV ====
     psi = 0.995*[#   1]+0.002*[#  25]+0.002*[#  33]
    |psi|^2 = 1.000
==== e(   2) =  -104.62914 eV ====
     psi = 0.995*[#   2]+0.002*[#  28]+0.002*[#  36]
    |psi|^2 = 1.000
==== e(   3) =   -66.47331 eV ====
     psi = 0.999*[#   3]
    |psi|^2 = 1.000
==== e(   4) =   -66.42041 eV ====
     psi = 0.998*[#   5]
    |psi|^2 = 1.000
==== e(   5) =   -66.42006 eV ====
     psi = 0.999*[#   4]
    |psi|^2 = 1.000
==== e(   6) =   -64.96395 eV ====
     psi = 0.999*[#   6]
    |psi|^2 = 1.000
==== e(   7) =   -64.95352 eV ====
     psi = 0.998*[#   8]
    |psi|^2 = 1.000
==== e(   8) =   -64.95312 eV ====
     psi = 0.999*[#   7]
    |psi|^2 = 1.000
==== e(   9) =   -14.77286 eV ====
     psi = 0.476*[#  21]+0.476*[#  29]+0.027*[#  19]+0.004*[#  25]+0.004*[#  33]
          +0.004*[#  23]+0.004*[#  31]+0.001*[#  11]
    |psi|^2 = 0.998
==== e(  10) =   -14.52625 eV ====
     psi = 0.475*[#  22]+0.475*[#  30]+0.027*[#  20]+0.005*[#  26]+0.005*[#  34]
          +0.004*[#  28]+0.004*[#  36]
    |psi|^2 = 0.998
==== e(  11) =   -14.49344 eV ====
     psi = 0.478*[#  21]+0.478*[#  29]+0.018*[#  19]+0.016*[#  11]+0.009*[#  12]

    |psi|^2 = 0.999
==== e(  12) =   -14.22487 eV ====
     psi = 0.479*[#  22]+0.479*[#  30]+0.019*[#  20]+0.013*[#  16]+0.008*[#  17]

    |psi|^2 = 0.999
==== e(  13) =    -7.48271 eV ====
     psi = 0.328*[#  25]+0.328*[#  33]+0.197*[#  19]+0.037*[#  11]+0.030*[#  23]
          +0.030*[#  31]+0.021*[#  12]+0.011*[#  21]+0.011*[#  29]+0.002*[#   1]
          +0.001*[#   9]
    |psi|^2 = 0.994
==== e(  14) =    -7.28827 eV ====
     psi = 0.325*[#  28]+0.325*[#  36]+0.207*[#  20]+0.032*[#  26]+0.032*[#  34]
          +0.024*[#  16]+0.020*[#  17]+0.012*[#  22]+0.012*[#  30]+0.002*[#   2]
          +0.001*[#  14]
    |psi|^2 = 0.993
==== e(  15) =    -6.58165 eV ====
     psi = 0.375*[#  25]+0.375*[#  33]+0.091*[#  23]+0.091*[#  31]+0.021*[#  12]
          +0.018*[#  11]+0.005*[#  21]+0.005*[#  29]+0.003*[#  19]
    |psi|^2 = 0.986
==== e(  16) =    -6.35692 eV ====
     psi = 0.379*[#  28]+0.379*[#  36]+0.099*[#  26]+0.099*[#  34]+0.007*[#  22]
          +0.007*[#  30]+0.006*[#  17]+0.003*[#  16]+0.003*[#  20]
    |psi|^2 = 0.983
==== e(  17) =    -5.76996 eV ====
     psi = 0.587*[#  10]+0.156*[#  13]+0.127*[#  24]+0.127*[#  32]
    |psi|^2 = 0.997
==== e(  18) =    -5.58203 eV ====
     psi = 0.264*[#  12]+0.247*[#  11]+0.192*[#  23]+0.192*[#  31]+0.056*[#   9]
          +0.014*[#  25]+0.014*[#  33]+0.008*[#  21]+0.008*[#  29]
    |psi|^2 = 0.995
==== e(  19) =    -4.78785 eV ====
     psi = 0.306*[#  26]+0.306*[#  34]+0.104*[#  14]+0.102*[#  17]+0.061*[#  28]
          +0.061*[#  36]+0.042*[#  16]+0.002*[#  22]+0.002*[#  30]
    |psi|^2 = 0.986
==== e(  20) =    -4.68404 eV ====
     psi = 0.306*[#  23]+0.306*[#  31]+0.110*[#  25]+0.110*[#  33]+0.057*[#   9]
          +0.053*[#  12]+0.035*[#  11]+0.003*[#  19]+0.003*[#  21]+0.003*[#  29]

    |psi|^2 = 0.986
==== e(  21) =    -4.50115 eV ====
     psi = 0.423*[#  24]+0.423*[#  32]+0.089*[#  13]+0.039*[#  10]
    |psi|^2 = 0.975
==== e(  22) =    -4.50093 eV ====
     psi = 0.394*[#  15]+0.280*[#  27]+0.280*[#  35]+0.038*[#  18]
    |psi|^2 = 0.992
==== e(  23) =    -4.29952 eV ====
     psi = 0.410*[#   9]+0.385*[#  11]+0.110*[#  12]+0.022*[#  23]+0.022*[#  31]
          +0.012*[#  19]+0.008*[#  25]+0.008*[#  33]+0.003*[#  21]+0.003*[#  29]

    |psi|^2 = 0.984
==== e(  24) =    -4.26505 eV ====
     psi = 0.321*[#  26]+0.321*[#  34]+0.147*[#  17]+0.078*[#  28]+0.078*[#  36]
          +0.021*[#  14]+0.010*[#  16]+0.004*[#  20]+0.002*[#  22]+0.002*[#  30]

    |psi|^2 = 0.984
==== e(  25) =    -4.24587 eV ====
     psi = 0.450*[#  27]+0.450*[#  35]+0.056*[#  15]+0.014*[#  18]
    |psi|^2 = 0.971
==== e(  26) =    -4.00632 eV ====
     psi = 0.742*[#  13]+0.116*[#  10]+0.068*[#  24]+0.068*[#  32]
    |psi|^2 = 0.994
==== e(  27) =    -3.89408 eV ====
     psi = 0.404*[#   9]+0.348*[#  12]+0.140*[#  11]+0.030*[#  23]+0.030*[#  31]
          +0.022*[#  19]+0.010*[#  25]+0.010*[#  33]
    |psi|^2 = 0.995
==== e(  28) =    -3.34625 eV ====
     psi = 0.479*[#  16]+0.257*[#  14]+0.132*[#  17]+0.044*[#  26]+0.044*[#  34]
          +0.016*[#  20]+0.003*[#  22]+0.003*[#  30]
    |psi|^2 = 0.980
==== e(  29) =    -3.15357 eV ====
     psi = 0.862*[#  18]+0.095*[#  15]+0.019*[#  27]+0.019*[#  35]
    |psi|^2 = 0.994
==== e(  30) =    -3.12992 eV ====
     psi = 0.578*[#  14]+0.309*[#  17]+0.054*[#  16]+0.020*[#  20]+0.011*[#  26]
          +0.011*[#  34]+0.005*[#  28]+0.005*[#  36]
    |psi|^2 = 0.994
==== e(  31) =    -2.56384 eV ====
     psi = 0.290*[#  23]+0.290*[#  31]+0.154*[#  12]+0.113*[#  11]+0.065*[#   9]
          +0.037*[#  25]+0.037*[#  33]+0.004*[#  19]+0.004*[#  21]+0.004*[#  29]

    |psi|^2 = 0.996
==== e(  32) =    -2.26386 eV ====
     psi = 0.367*[#  24]+0.367*[#  32]+0.255*[#  10]+0.010*[#  13]
    |psi|^2 = 0.998
==== e(  33) =    -1.25986 eV ====
     psi = 0.359*[#  16]+0.240*[#  17]+0.144*[#  26]+0.144*[#  34]+0.029*[#  28]
          +0.029*[#  36]+0.026*[#  14]+0.007*[#  22]+0.007*[#  30]+0.006*[#  20]

    |psi|^2 = 0.991
==== e(  34) =    -1.08619 eV ====
     psi = 0.449*[#  15]+0.234*[#  27]+0.234*[#  35]+0.078*[#  18]
    |psi|^2 = 0.994
==== e(  35) =     0.92171 eV ====
     psi = 0.544*[#  19]+0.089*[#  25]+0.089*[#  33]+0.018*[#  23]+0.018*[#  31]
          +0.013*[#  12]+0.009*[#  21]+0.009*[#  29]+0.002*[#   1]
    |psi|^2 = 0.792
==== e(  36) =     1.16887 eV ====
     psi = 0.522*[#  20]+0.091*[#  28]+0.091*[#  36]+0.024*[#  17]+0.020*[#  26]
          +0.020*[#  34]+0.010*[#  22]+0.010*[#  30]+0.002*[#   2]
    |psi|^2 = 0.791
==== e(  37) =     2.99320 eV ====
     psi = 0.014*[#  19]+0.005*[#  23]+0.005*[#  31]
    |psi|^2 = 0.030
==== e(  38) =     3.14110 eV ====
     psi = 0.017*[#  20]+0.006*[#  26]+0.006*[#  34]+0.001*[#  16]+0.001*[#  28]
          +0.001*[#  36]
    |psi|^2 = 0.036
==== e(  39) =     3.53562 eV ====
     psi = 0.004*[#  12]+0.002*[#   9]+0.002*[#  25]+0.002*[#  33]+0.002*[#  11]

    |psi|^2 = 0.014
==== e(  40) =     3.71786 eV ====
     psi = 0.006*[#  17]+0.003*[#  14]+0.003*[#  16]+0.003*[#  28]+0.003*[#  36]

    |psi|^2 = 0.019

 k =   0.0000000000 -0.5773502692  0.0000000000
==== e(   1) =  -105.99970 eV ====
     psi = 0.995*[#   1]+0.002*[#  25]+0.002*[#  33]
    |psi|^2 = 1.000
==== e(   2) =  -104.62914 eV ====
     psi = 0.995*[#   2]+0.002*[#  28]+0.002*[#  36]
    |psi|^2 = 1.000
==== e(   3) =   -66.47331 eV ====
     psi = 0.999*[#   3]
    |psi|^2 = 1.000
==== e(   4) =   -66.42043 eV ====
     psi = 0.998*[#   5]
    |psi|^2 = 1.000
==== e(   5) =   -66.42006 eV ====
     psi = 0.999*[#   4]
    |psi|^2 = 1.000
==== e(   6) =   -64.96395 eV ====
     psi = 0.999*[#   6]
    |psi|^2 = 1.000
==== e(   7) =   -64.95354 eV ====
     psi = 0.998*[#   8]
    |psi|^2 = 1.000
==== e(   8) =   -64.95313 eV ====
     psi = 0.999*[#   7]
    |psi|^2 = 1.000
==== e(   9) =   -14.69547 eV ====
     psi = 0.492*[#  21]+0.492*[#  29]+0.004*[#  23]+0.004*[#  31]+0.002*[#  25]
          +0.002*[#  33]
    |psi|^2 = 0.997
==== e(  10) =   -14.50507 eV ====
     psi = 0.468*[#  21]+0.468*[#  29]+0.033*[#  19]+0.018*[#  11]+0.010*[#  12]
          +0.001*[#  25]+0.001*[#  33]
    |psi|^2 = 1.000
==== e(  11) =   -14.44747 eV ====
     psi = 0.492*[#  22]+0.492*[#  30]+0.004*[#  26]+0.004*[#  34]+0.002*[#  28]
          +0.002*[#  36]
    |psi|^2 = 0.997
==== e(  12) =   -14.23605 eV ====
     psi = 0.469*[#  22]+0.469*[#  30]+0.034*[#  20]+0.015*[#  16]+0.009*[#  17]
          +0.001*[#  28]+0.001*[#  36]
    |psi|^2 = 1.000
==== e(  13) =    -7.58985 eV ====
     psi = 0.332*[#  25]+0.332*[#  33]+0.204*[#  19]+0.039*[#  11]+0.027*[#  23]
          +0.027*[#  31]+0.017*[#  12]+0.006*[#  21]+0.006*[#  29]+0.002*[#   1]
          +0.002*[#   9]
    |psi|^2 = 0.995
==== e(  14) =    -7.39541 eV ====
     psi = 0.330*[#  28]+0.330*[#  36]+0.214*[#  20]+0.029*[#  26]+0.029*[#  34]
          +0.026*[#  16]+0.017*[#  17]+0.008*[#  22]+0.008*[#  30]+0.002*[#   2]
          +0.001*[#  14]
    |psi|^2 = 0.994
==== e(  15) =    -6.60847 eV ====
     psi = 0.398*[#  25]+0.398*[#  33]+0.089*[#  23]+0.089*[#  31]+0.005*[#  21]
          +0.005*[#  29]
    |psi|^2 = 0.985
==== e(  16) =    -6.41216 eV ====
     psi = 0.393*[#  28]+0.393*[#  36]+0.092*[#  26]+0.092*[#  34]+0.005*[#  22]
          +0.005*[#  30]
    |psi|^2 = 0.983
==== e(  17) =    -5.77054 eV ====
     psi = 0.597*[#  10]+0.146*[#  13]+0.127*[#  24]+0.127*[#  32]
    |psi|^2 = 0.997
==== e(  18) =    -5.58032 eV ====
     psi = 0.327*[#  12]+0.273*[#  11]+0.161*[#  23]+0.161*[#  31]+0.040*[#   9]
          +0.008*[#  21]+0.008*[#  25]+0.008*[#  29]+0.008*[#  33]
    |psi|^2 = 0.996
==== e(  19) =    -4.65535 eV ====
     psi = 0.396*[#  23]+0.396*[#  31]+0.093*[#  25]+0.093*[#  33]+0.002*[#  21]
          +0.002*[#  29]
    |psi|^2 = 0.982
==== e(  20) =    -4.60685 eV ====
     psi = 0.259*[#  26]+0.259*[#  34]+0.237*[#  17]+0.122*[#  14]+0.052*[#  16]
          +0.026*[#  28]+0.026*[#  36]+0.002*[#  22]+0.002*[#  30]+0.001*[#  20]

    |psi|^2 = 0.988
==== e(  21) =    -4.49901 eV ====
     psi = 0.444*[#  15]+0.263*[#  27]+0.263*[#  35]+0.024*[#  18]
    |psi|^2 = 0.994
==== e(  22) =    -4.48477 eV ====
     psi = 0.486*[#  24]+0.486*[#  32]
    |psi|^2 = 0.972
==== e(  23) =    -4.43461 eV ====
     psi = 0.391*[#  26]+0.391*[#  34]+0.096*[#  28]+0.096*[#  36]+0.002*[#  22]
          +0.002*[#  30]
    |psi|^2 = 0.980
==== e(  24) =    -4.32842 eV ====
     psi = 0.520*[#   9]+0.379*[#  11]+0.057*[#  12]+0.007*[#  25]+0.007*[#  33]
          +0.006*[#  19]+0.003*[#  21]+0.003*[#  29]+0.001*[#  23]+0.001*[#  31]

    |psi|^2 = 0.984
==== e(  25) =    -4.27264 eV ====
     psi = 0.483*[#  27]+0.483*[#  35]
    |psi|^2 = 0.968
==== e(  26) =    -4.06870 eV ====
     psi = 0.842*[#  13]+0.139*[#  10]+0.008*[#  24]+0.008*[#  32]
    |psi|^2 = 0.997
==== e(  27) =    -3.94324 eV ====
     psi = 0.415*[#  12]+0.362*[#   9]+0.167*[#  11]+0.032*[#  19]+0.006*[#  25]
          +0.006*[#  33]+0.004*[#  23]+0.004*[#  31]
    |psi|^2 = 0.996
==== e(  28) =    -3.34847 eV ====
     psi = 0.482*[#  16]+0.259*[#  14]+0.131*[#  17]+0.042*[#  26]+0.042*[#  34]
          +0.017*[#  20]+0.003*[#  22]+0.003*[#  30]
    |psi|^2 = 0.979
==== e(  29) =    -3.17736 eV ====
     psi = 0.895*[#  18]+0.094*[#  15]+0.003*[#  27]+0.003*[#  35]
    |psi|^2 = 0.995
==== e(  30) =    -3.16467 eV ====
     psi = 0.578*[#  14]+0.331*[#  17]+0.053*[#  16]+0.026*[#  20]+0.004*[#  28]
          +0.004*[#  36]
    |psi|^2 = 0.994
==== e(  31) =    -2.53544 eV ====
     psi = 0.285*[#  23]+0.285*[#  31]+0.153*[#  12]+0.116*[#  11]+0.069*[#   9]
          +0.039*[#  25]+0.039*[#  33]+0.005*[#  19]+0.003*[#  21]+0.003*[#  29]

    |psi|^2 = 0.997
==== e(  32) =    -2.26800 eV ====
     psi = 0.364*[#  24]+0.364*[#  32]+0.261*[#  10]+0.008*[#  13]
    |psi|^2 = 0.998
==== e(  33) =    -1.22666 eV ====
     psi = 0.358*[#  16]+0.236*[#  17]+0.143*[#  26]+0.143*[#  34]+0.031*[#  28]
          +0.031*[#  36]+0.029*[#  14]+0.009*[#  20]+0.006*[#  22]+0.006*[#  30]

    |psi|^2 = 0.992
==== e(  34) =    -1.08702 eV ====
     psi = 0.455*[#  15]+0.232*[#  27]+0.232*[#  35]+0.075*[#  18]
    |psi|^2 = 0.995
==== e(  35) =     0.85081 eV ====
     psi = 0.570*[#  19]+0.091*[#  25]+0.091*[#  33]+0.018*[#  23]+0.018*[#  31]
          +0.015*[#  12]+0.009*[#  21]+0.009*[#  29]+0.002*[#   1]
    |psi|^2 = 0.823
==== e(  36) =     1.10615 eV ====
     psi = 0.548*[#  20]+0.092*[#  28]+0.092*[#  36]+0.029*[#  17]+0.021*[#  26]
          +0.021*[#  34]+0.009*[#  22]+0.009*[#  30]+0.002*[#   2]
    |psi|^2 = 0.825
==== e(  37) =     2.95898 eV ====
     psi = 0.005*[#  23]+0.005*[#  31]
    |psi|^2 = 0.011
==== e(  38) =     3.10331 eV ====
     psi = 0.005*[#  26]+0.005*[#  34]
    |psi|^2 = 0.014
==== e(  39) =     3.67916 eV ====
     psi = 0.005*[#  11]+0.004*[#   9]+0.004*[#  12]+0.002*[#  23]+0.002*[#  31]

    |psi|^2 = 0.019
==== e(  40) =     3.83035 eV ====
     psi = 0.003*[#  25]+0.003*[#  33]+0.002*[#  23]+0.002*[#  31]
    |psi|^2 = 0.011

 k =   0.0000000000 -0.5051814855  0.0000000000
==== e(   1) =  -105.99970 eV ====
     psi = 0.995*[#   1]+0.002*[#  25]+0.002*[#  33]
    |psi|^2 = 1.000
==== e(   2) =  -104.62914 eV ====
     psi = 0.995*[#   2]+0.002*[#  28]+0.002*[#  36]
    |psi|^2 = 1.000
==== e(   3) =   -66.47331 eV ====
     psi = 0.999*[#   3]
    |psi|^2 = 1.000
==== e(   4) =   -66.42041 eV ====
     psi = 0.998*[#   5]
    |psi|^2 = 1.000
==== e(   5) =   -66.42006 eV ====
     psi = 0.999*[#   4]
    |psi|^2 = 1.000
==== e(   6) =   -64.96395 eV ====
     psi = 0.999*[#   6]
    |psi|^2 = 1.000
==== e(   7) =   -64.95352 eV ====
     psi = 0.998*[#   8]
    |psi|^2 = 1.000
==== e(   8) =   -64.95312 eV ====
     psi = 0.999*[#   7]
    |psi|^2 = 1.000
==== e(   9) =   -14.77286 eV ====
     psi = 0.476*[#  21]+0.476*[#  29]+0.027*[#  19]+0.004*[#  25]+0.004*[#  33]
          +0.004*[#  23]+0.004*[#  31]+0.001*[#  11]
    |psi|^2 = 0.998
==== e(  10) =   -14.52625 eV ====
     psi = 0.475*[#  22]+0.475*[#  30]+0.027*[#  20]+0.005*[#  26]+0.005*[#  34]
          +0.004*[#  28]+0.004*[#  36]
    |psi|^2 = 0.998
==== e(  11) =   -14.49344 eV ====
     psi = 0.478*[#  21]+0.478*[#  29]+0.018*[#  19]+0.016*[#  11]+0.009*[#  12]

    |psi|^2 = 0.999
==== e(  12) =   -14.22487 eV ====
     psi = 0.479*[#  22]+0.479*[#  30]+0.019*[#  20]+0.013*[#  16]+0.008*[#  17]

    |psi|^2 = 0.999
==== e(  13) =    -7.48271 eV ====
     psi = 0.328*[#  25]+0.328*[#  33]+0.197*[#  19]+0.037*[#  11]+0.030*[#  23]
          +0.030*[#  31]+0.021*[#  12]+0.011*[#  21]+0.011*[#  29]+0.002*[#   1]
          +0.001*[#   9]
    |psi|^2 = 0.994
==== e(  14) =    -7.28827 eV ====
     psi = 0.325*[#  28]+0.325*[#  36]+0.207*[#  20]+0.032*[#  26]+0.032*[#  34]
          +0.024*[#  16]+0.020*[#  17]+0.012*[#  22]+0.012*[#  30]+0.002*[#   2]
          +0.001*[#  14]
    |psi|^2 = 0.993
==== e(  15) =    -6.58165 eV ====
     psi = 0.375*[#  25]+0.375*[#  33]+0.091*[#  23]+0.091*[#  31]+0.021*[#  12]
          +0.018*[#  11]+0.005*[#  21]+0.005*[#  29]+0.003*[#  19]
    |psi|^2 = 0.986
==== e(  16) =    -6.35692 eV ====
     psi = 0.379*[#  28]+0.379*[#  36]+0.099*[#  26]+0.099*[#  34]+0.007*[#  22]
          +0.007*[#  30]+0.006*[#  17]+0.003*[#  16]+0.003*[#  20]
    |psi|^2 = 0.983
==== e(  17) =    -5.76996 eV ====
     psi = 0.587*[#  10]+0.156*[#  13]+0.127*[#  24]+0.127*[#  32]
    |psi|^2 = 0.997
==== e(  18) =    -5.58203 eV ====
     psi = 0.264*[#  12]+0.247*[#  11]+0.192*[#  23]+0.192*[#  31]+0.056*[#   9]
          +0.014*[#  25]+0.014*[#  33]+0.008*[#  21]+0.008*[#  29]
    |psi|^2 = 0.995
==== e(  19) =    -4.78785 eV ====
     psi = 0.306*[#  26]+0.306*[#  34]+0.104*[#  14]+0.102*[#  17]+0.061*[#  28]
          +0.061*[#  36]+0.042*[#  16]+0.002*[#  22]+0.002*[#  30]
    |psi|^2 = 0.986
==== e(  20) =    -4.68404 eV ====
     psi = 0.306*[#  23]+0.306*[#  31]+0.110*[#  25]+0.110*[#  33]+0.057*[#   9]
          +0.053*[#  12]+0.035*[#  11]+0.003*[#  19]+0.003*[#  21]+0.003*[#  29]

    |psi|^2 = 0.986
==== e(  21) =    -4.50115 eV ====
     psi = 0.423*[#  24]+0.423*[#  32]+0.089*[#  13]+0.039*[#  10]
    |psi|^2 = 0.975
==== e(  22) =    -4.50093 eV ====
     psi = 0.394*[#  15]+0.280*[#  27]+0.280*[#  35]+0.038*[#  18]
    |psi|^2 = 0.992
==== e(  23) =    -4.29952 eV ====
     psi = 0.410*[#   9]+0.385*[#  11]+0.110*[#  12]+0.022*[#  23]+0.022*[#  31]
          +0.012*[#  19]+0.008*[#  25]+0.008*[#  33]+0.003*[#  21]+0.003*[#  29]

    |psi|^2 = 0.984
==== e(  24) =    -4.26505 eV ====
     psi = 0.321*[#  26]+0.321*[#  34]+0.147*[#  17]+0.078*[#  28]+0.078*[#  36]
          +0.021*[#  14]+0.010*[#  16]+0.004*[#  20]+0.002*[#  22]+0.002*[#  30]

    |psi|^2 = 0.984
==== e(  25) =    -4.24587 eV ====
     psi = 0.450*[#  27]+0.450*[#  35]+0.056*[#  15]+0.014*[#  18]
    |psi|^2 = 0.971
==== e(  26) =    -4.00632 eV ====
     psi = 0.742*[#  13]+0.116*[#  10]+0.068*[#  24]+0.068*[#  32]
    |psi|^2 = 0.994
==== e(  27) =    -3.89408 eV ====
     psi = 0.404*[#   9]+0.348*[#  12]+0.140*[#  11]+0.030*[#  23]+0.030*[#  31]
          +0.022*[#  19]+0.010*[#  25]+0.010*[#  33]
    |psi|^2 = 0.995
==== e(  28) =    -3.34625 eV ====
     psi = 0.479*[#  16]+0.257*[#  14]+0.132*[#  17]+0.044*[#  26]+0.044*[#  34]
          +0.016*[#  20]+0.003*[#  22]+0.003*[#  30]
    |psi|^2 = 0.980
==== e(  29) =    -3.15357 eV ====
     psi = 0.862*[#  18]+0.095*[#  15]+0.019*[#  27]+0.019*[#  35]
    |psi|^2 = 0.994
==== e(  30) =    -3.12992 eV ====
     psi = 0.578*[#  14]+0.309*[#  17]+0.054*[#  16]+0.020*[#  20]+0.011*[#  26]
          +0.011*[#  34]+0.005*[#  28]+0.005*[#  36]
    |psi|^2 = 0.994
==== e(  31) =    -2.56384 eV ====
     psi = 0.290*[#  23]+0.290*[#  31]+0.154*[#  12]+0.113*[#  11]+0.065*[#   9]
          +0.037*[#  25]+0.037*[#  33]+0.004*[#  19]+0.004*[#  21]+0.004*[#  29]

    |psi|^2 = 0.996
==== e(  32) =    -2.26386 eV ====
     psi = 0.367*[#  24]+0.367*[#  32]+0.255*[#  10]+0.010*[#  13]
    |psi|^2 = 0.998
==== e(  33) =    -1.25986 eV ====
     psi = 0.359*[#  16]+0.240*[#  17]+0.144*[#  26]+0.144*[#  34]+0.029*[#  28]
          +0.029*[#  36]+0.026*[#  14]+0.007*[#  22]+0.007*[#  30]+0.006*[#  20]

    |psi|^2 = 0.991
==== e(  34) =    -1.08619 eV ====
     psi = 0.449*[#  15]+0.234*[#  27]+0.234*[#  35]+0.078*[#  18]
    |psi|^2 = 0.994
==== e(  35) =     0.92171 eV ====
     psi = 0.544*[#  19]+0.089*[#  25]+0.089*[#  33]+0.018*[#  23]+0.018*[#  31]
          +0.013*[#  12]+0.009*[#  21]+0.009*[#  29]+0.002*[#   1]
    |psi|^2 = 0.792
==== e(  36) =     1.16887 eV ====
     psi = 0.522*[#  20]+0.091*[#  28]+0.091*[#  36]+0.024*[#  17]+0.020*[#  26]
          +0.020*[#  34]+0.010*[#  22]+0.010*[#  30]+0.002*[#   2]
    |psi|^2 = 0.791
==== e(  37) =     2.99320 eV ====
     psi = 0.014*[#  19]+0.005*[#  23]+0.005*[#  31]
    |psi|^2 = 0.030
==== e(  38) =     3.14110 eV ====
     psi = 0.017*[#  20]+0.006*[#  26]+0.006*[#  34]+0.001*[#  16]+0.001*[#  28]
          +0.001*[#  36]
    |psi|^2 = 0.036
==== e(  39) =     3.53562 eV ====
     psi = 0.004*[#  12]+0.002*[#   9]+0.002*[#  25]+0.002*[#  33]+0.002*[#  11]

    |psi|^2 = 0.014
==== e(  40) =     3.71786 eV ====
     psi = 0.006*[#  17]+0.003*[#  14]+0.003*[#  16]+0.003*[#  28]+0.003*[#  36]

    |psi|^2 = 0.019

 k =   0.0000000000 -0.4330127019  0.0000000000
==== e(   1) =  -105.99970 eV ====
     psi = 0.995*[#   1]+0.002*[#  25]+0.002*[#  33]
    |psi|^2 = 1.000
==== e(   2) =  -104.62914 eV ====
     psi = 0.995*[#   2]+0.002*[#  28]+0.002*[#  36]
    |psi|^2 = 1.000
==== e(   3) =   -66.47332 eV ====
     psi = 0.999*[#   3]
    |psi|^2 = 1.000
==== e(   4) =   -66.42035 eV ====
     psi = 0.999*[#   5]
    |psi|^2 = 1.000
==== e(   5) =   -66.42005 eV ====
     psi = 0.999*[#   4]
    |psi|^2 = 1.000
==== e(   6) =   -64.96396 eV ====
     psi = 0.999*[#   6]
    |psi|^2 = 1.000
==== e(   7) =   -64.95346 eV ====
     psi = 0.998*[#   8]
    |psi|^2 = 1.000
==== e(   8) =   -64.95311 eV ====
     psi = 0.999*[#   7]
    |psi|^2 = 1.000
==== e(   9) =   -14.94270 eV ====
     psi = 0.451*[#  21]+0.451*[#  29]+0.070*[#  19]+0.007*[#  25]+0.007*[#  33]
          +0.004*[#  23]+0.004*[#  31]+0.001*[#  11]
    |psi|^2 = 0.999
==== e(  10) =   -14.70055 eV ====
     psi = 0.449*[#  22]+0.449*[#  30]+0.072*[#  20]+0.007*[#  28]+0.007*[#  36]
          +0.005*[#  26]+0.005*[#  34]+0.001*[#  16]
    |psi|^2 = 0.998
==== e(  11) =   -14.50489 eV ====
     psi = 0.484*[#  21]+0.484*[#  29]+0.014*[#  11]+0.007*[#  12]+0.006*[#  19]
          +0.001*[#  25]+0.001*[#  33]
    |psi|^2 = 0.999
==== e(  12) =   -14.23687 eV ====
     psi = 0.486*[#  22]+0.486*[#  30]+0.012*[#  16]+0.007*[#  20]+0.006*[#  17]
          +0.001*[#  28]+0.001*[#  36]
    |psi|^2 = 0.999
==== e(  13) =    -7.18488 eV ====
     psi = 0.309*[#  25]+0.309*[#  33]+0.180*[#  19]+0.043*[#  23]+0.043*[#  31]
          +0.032*[#  12]+0.029*[#  11]+0.021*[#  21]+0.021*[#  29]+0.002*[#   1]

    |psi|^2 = 0.991
==== e(  14) =    -6.98964 eV ====
     psi = 0.308*[#  28]+0.308*[#  36]+0.189*[#  20]+0.045*[#  26]+0.045*[#  34]
          +0.027*[#  17]+0.023*[#  22]+0.023*[#  30]+0.020*[#  16]+0.002*[#   2]

    |psi|^2 = 0.991
==== e(  15) =    -6.50805 eV ====
     psi = 0.318*[#  25]+0.318*[#  33]+0.097*[#  23]+0.097*[#  31]+0.072*[#  12]
          +0.062*[#  11]+0.009*[#  19]+0.006*[#  21]+0.006*[#  29]+0.001*[#   9]

    |psi|^2 = 0.987
==== e(  16) =    -6.21058 eV ====
     psi = 0.334*[#  28]+0.334*[#  36]+0.125*[#  26]+0.125*[#  34]+0.023*[#  17]
          +0.010*[#  16]+0.009*[#  22]+0.009*[#  30]+0.009*[#  20]+0.004*[#  14]

    |psi|^2 = 0.983
==== e(  17) =    -5.76972 eV ====
     psi = 0.560*[#  10]+0.182*[#  13]+0.127*[#  24]+0.127*[#  32]
    |psi|^2 = 0.996
==== e(  18) =    -5.63101 eV ====
     psi = 0.246*[#  23]+0.246*[#  31]+0.193*[#  11]+0.129*[#  12]+0.099*[#   9]
          +0.033*[#  25]+0.033*[#  33]+0.006*[#  21]+0.006*[#  29]
    |psi|^2 = 0.991
==== e(  19) =    -5.01204 eV ====
     psi = 0.280*[#  26]+0.280*[#  34]+0.114*[#  14]+0.104*[#  28]+0.104*[#  36]
          +0.051*[#  17]+0.050*[#  16]
    |psi|^2 = 0.986
==== e(  20) =    -4.62094 eV ====
     psi = 0.172*[#  23]+0.172*[#  31]+0.157*[#  25]+0.157*[#  33]+0.133*[#  12]
          +0.100*[#  11]+0.088*[#   9]+0.005*[#  21]+0.005*[#  29]+0.002*[#  19]

    |psi|^2 = 0.991
==== e(  21) =    -4.52129 eV ====
     psi = 0.323*[#  24]+0.323*[#  32]+0.216*[#  13]+0.118*[#  10]
    |psi|^2 = 0.980
==== e(  22) =    -4.50704 eV ====
     psi = 0.303*[#  27]+0.303*[#  35]+0.296*[#  15]+0.086*[#  18]
    |psi|^2 = 0.988
==== e(  23) =    -4.25779 eV ====
     psi = 0.380*[#  11]+0.292*[#   9]+0.207*[#  12]+0.029*[#  23]+0.029*[#  31]
          +0.020*[#  19]+0.011*[#  25]+0.011*[#  33]+0.003*[#  21]+0.003*[#  29]

    |psi|^2 = 0.984
==== e(  24) =    -4.16720 eV ====
     psi = 0.381*[#  27]+0.381*[#  35]+0.170*[#  15]+0.044*[#  18]
    |psi|^2 = 0.976
==== e(  25) =    -4.02783 eV ====
     psi = 0.280*[#  26]+0.280*[#  34]+0.213*[#  17]+0.089*[#  28]+0.089*[#  36]
          +0.018*[#  14]+0.008*[#  20]+0.004*[#  16]+0.002*[#  22]+0.002*[#  30]

    |psi|^2 = 0.986
==== e(  26) =    -3.85136 eV ====
     psi = 0.583*[#  13]+0.161*[#  24]+0.161*[#  32]+0.083*[#  10]
    |psi|^2 = 0.988
==== e(  27) =    -3.78946 eV ====
     psi = 0.458*[#   9]+0.245*[#  12]+0.107*[#  11]+0.068*[#  23]+0.068*[#  31]
          +0.020*[#  25]+0.020*[#  33]+0.010*[#  19]
    |psi|^2 = 0.994
==== e(  28) =    -3.33959 eV ====
     psi = 0.470*[#  16]+0.252*[#  14]+0.134*[#  17]+0.050*[#  26]+0.050*[#  34]
          +0.015*[#  20]+0.003*[#  22]+0.003*[#  30]+0.001*[#  28]+0.001*[#  36]

    |psi|^2 = 0.980
==== e(  29) =    -3.08505 eV ====
     psi = 0.771*[#  18]+0.097*[#  15]+0.062*[#  27]+0.062*[#  35]
    |psi|^2 = 0.991
==== e(  30) =    -3.05150 eV ====
     psi = 0.579*[#  14]+0.264*[#  17]+0.057*[#  16]+0.031*[#  26]+0.031*[#  34]
          +0.011*[#  20]+0.010*[#  28]+0.010*[#  36]
    |psi|^2 = 0.993
==== e(  31) =    -2.65229 eV ====
     psi = 0.300*[#  23]+0.300*[#  31]+0.157*[#  12]+0.107*[#  11]+0.056*[#   9]
          +0.034*[#  25]+0.034*[#  33]+0.004*[#  21]+0.004*[#  29]+0.001*[#  19]

    |psi|^2 = 0.995
==== e(  32) =    -2.25092 eV ====
     psi = 0.373*[#  24]+0.373*[#  32]+0.236*[#  10]+0.015*[#  13]
    |psi|^2 = 0.998
==== e(  33) =    -1.35778 eV ====
     psi = 0.361*[#  16]+0.252*[#  17]+0.141*[#  26]+0.141*[#  34]+0.028*[#  28]
          +0.028*[#  36]+0.021*[#  14]+0.008*[#  22]+0.008*[#  30]+0.002*[#  20]

    |psi|^2 = 0.989
==== e(  34) =    -1.08285 eV ====
     psi = 0.430*[#  15]+0.237*[#  27]+0.237*[#  35]+0.090*[#  18]
    |psi|^2 = 0.994
==== e(  35) =     1.13700 eV ====
     psi = 0.473*[#  19]+0.083*[#  25]+0.083*[#  33]+0.018*[#  23]+0.018*[#  31]
          +0.011*[#  21]+0.011*[#  29]+0.009*[#  12]+0.002*[#   1]
    |psi|^2 = 0.710
==== e(  36) =     1.36635 eV ====
     psi = 0.452*[#  20]+0.085*[#  28]+0.085*[#  36]+0.019*[#  26]+0.019*[#  34]
          +0.015*[#  17]+0.011*[#  22]+0.011*[#  30]+0.002*[#   2]
    |psi|^2 = 0.700
==== e(  37) =     3.05352 eV ====
     psi = 0.051*[#  19]+0.007*[#  23]+0.007*[#  31]+0.003*[#  12]+0.002*[#  11]
          +0.002*[#  21]+0.002*[#  29]+0.002*[#  25]+0.002*[#  33]
    |psi|^2 = 0.078
==== e(  38) =     3.20821 eV ====
     psi = 0.059*[#  20]+0.008*[#  26]+0.008*[#  34]+0.004*[#  16]+0.004*[#  17]
          +0.003*[#  28]+0.003*[#  36]+0.002*[#  22]+0.002*[#  30]
    |psi|^2 = 0.094
==== e(  39) =     3.50001 eV ====
     psi = 0.004*[#  19]+0.003*[#  25]+0.003*[#  33]+0.003*[#  12]+0.001*[#   9]

    |psi|^2 = 0.017
==== e(  40) =     3.66819 eV ====
     psi = 0.006*[#  17]+0.004*[#  28]+0.004*[#  36]+0.003*[#  20]+0.002*[#  14]

    |psi|^2 = 0.021

 k =   0.0000000000 -0.3608439182  0.0000000000
==== e(   1) =  -105.99970 eV ====
     psi = 0.995*[#   1]+0.002*[#  25]+0.002*[#  33]
    |psi|^2 = 1.000
==== e(   2) =  -104.62915 eV ====
     psi = 0.995*[#   2]+0.002*[#  28]+0.002*[#  36]
    |psi|^2 = 1.000
==== e(   3) =   -66.47334 eV ====
     psi = 0.999*[#   3]
    |psi|^2 = 1.000
==== e(   4) =   -66.42028 eV ====
     psi = 0.999*[#   5]
    |psi|^2 = 1.000
==== e(   5) =   -66.42003 eV ====
     psi = 0.999*[#   4]
    |psi|^2 = 1.000
==== e(   6) =   -64.96398 eV ====
     psi = 0.999*[#   6]
    |psi|^2 = 1.000
==== e(   7) =   -64.95337 eV ====
     psi = 0.999*[#   8]
    |psi|^2 = 1.000
==== e(   8) =   -64.95309 eV ====
     psi = 0.999*[#   7]
    |psi|^2 = 1.000
==== e(   9) =   -15.14718 eV ====
     psi = 0.426*[#  21]+0.426*[#  29]+0.117*[#  19]+0.009*[#  25]+0.009*[#  33]
          +0.005*[#  23]+0.005*[#  31]
    |psi|^2 = 0.999
==== e(  10) =   -14.91015 eV ====
     psi = 0.424*[#  22]+0.424*[#  30]+0.120*[#  20]+0.009*[#  28]+0.009*[#  36]
          +0.005*[#  26]+0.005*[#  34]
    |psi|^2 = 0.999
==== e(  11) =   -14.55700 eV ====
     psi = 0.486*[#  21]+0.486*[#  29]+0.011*[#  11]+0.006*[#  12]+0.003*[#  25]
          +0.003*[#  33]+0.002*[#  19]
    |psi|^2 = 0.999
==== e(  12) =   -14.29068 eV ====
     psi = 0.487*[#  22]+0.487*[#  30]+0.010*[#  16]+0.005*[#  17]+0.003*[#  28]
          +0.003*[#  36]+0.002*[#  20]
    |psi|^2 = 0.998
==== e(  13) =    -6.78734 eV ====
     psi = 0.245*[#  25]+0.245*[#  33]+0.162*[#  19]+0.100*[#  23]+0.100*[#  31]
          +0.053*[#  12]+0.035*[#  21]+0.035*[#  29]+0.013*[#  11]+0.002*[#   1]
          +0.001*[#   9]
    |psi|^2 = 0.990
==== e(  14) =    -6.58853 eV ====
     psi = 0.240*[#  28]+0.240*[#  36]+0.175*[#  20]+0.104*[#  26]+0.104*[#  34]
          +0.039*[#  22]+0.039*[#  30]+0.033*[#  17]+0.013*[#  16]+0.002*[#   2]
          +0.001*[#  14]
    |psi|^2 = 0.990
==== e(  15) =    -6.40750 eV ====
     psi = 0.250*[#  25]+0.250*[#  33]+0.133*[#  12]+0.111*[#  23]+0.111*[#  31]
          +0.102*[#  11]+0.012*[#  19]+0.007*[#  21]+0.007*[#  29]+0.006*[#   9]

    |psi|^2 = 0.989
==== e(  16) =    -6.02593 eV ====
     psi = 0.280*[#  28]+0.280*[#  36]+0.159*[#  26]+0.159*[#  34]+0.056*[#  17]
          +0.015*[#  14]+0.010*[#  16]+0.008*[#  22]+0.008*[#  30]+0.006*[#  20]

    |psi|^2 = 0.982
==== e(  17) =    -5.77292 eV ====
     psi = 0.519*[#  10]+0.223*[#  13]+0.127*[#  24]+0.127*[#  32]
    |psi|^2 = 0.996
==== e(  18) =    -5.69675 eV ====
     psi = 0.214*[#  23]+0.214*[#  31]+0.192*[#  11]+0.132*[#   9]+0.096*[#  25]
          +0.096*[#  33]+0.041*[#  12]+0.002*[#  21]+0.002*[#  29]
    |psi|^2 = 0.989
==== e(  19) =    -5.11116 eV ====
     psi = 0.190*[#  28]+0.190*[#  36]+0.188*[#  26]+0.188*[#  34]+0.117*[#  14]
          +0.079*[#  16]+0.033*[#  17]+0.002*[#  20]
    |psi|^2 = 0.987
==== e(  20) =    -4.51748 eV ====
     psi = 0.305*[#  27]+0.305*[#  35]+0.213*[#  15]+0.162*[#  18]
    |psi|^2 = 0.986
==== e(  21) =    -4.51434 eV ====
     psi = 0.297*[#  13]+0.237*[#  24]+0.237*[#  32]+0.212*[#  10]
    |psi|^2 = 0.984
==== e(  22) =    -4.36563 eV ====
     psi = 0.236*[#  11]+0.177*[#  25]+0.177*[#  33]+0.173*[#   9]+0.077*[#  23]
          +0.077*[#  31]+0.055*[#  12]+0.008*[#  21]+0.008*[#  29]
    |psi|^2 = 0.990
==== e(  23) =    -4.20373 eV ====
     psi = 0.359*[#  12]+0.246*[#  11]+0.160*[#   9]+0.053*[#  23]+0.053*[#  31]
          +0.043*[#  25]+0.043*[#  33]+0.023*[#  19]+0.002*[#  21]+0.002*[#  29]

    |psi|^2 = 0.985
==== e(  24) =    -4.04236 eV ====
     psi = 0.311*[#  27]+0.311*[#  35]+0.282*[#  15]+0.076*[#  18]
    |psi|^2 = 0.980
==== e(  25) =    -3.76578 eV ====
     psi = 0.257*[#  26]+0.257*[#  34]+0.219*[#  17]+0.109*[#  28]+0.109*[#  36]
          +0.021*[#  14]+0.008*[#  20]+0.001*[#  22]+0.001*[#  30]
    |psi|^2 = 0.984
==== e(  26) =    -3.68743 eV ====
     psi = 0.471*[#   9]+0.178*[#  12]+0.089*[#  11]+0.089*[#  23]+0.089*[#  31]
          +0.036*[#  25]+0.036*[#  33]+0.003*[#  19]
    |psi|^2 = 0.994
==== e(  27) =    -3.64637 eV ====
     psi = 0.447*[#  13]+0.238*[#  24]+0.238*[#  32]+0.061*[#  10]
    |psi|^2 = 0.984
==== e(  28) =    -3.32861 eV ====
     psi = 0.446*[#  16]+0.239*[#  14]+0.136*[#  17]+0.066*[#  26]+0.066*[#  34]
          +0.014*[#  20]+0.004*[#  28]+0.004*[#  36]+0.003*[#  22]+0.003*[#  30]

    |psi|^2 = 0.981
==== e(  29) =    -2.98127 eV ====
     psi = 0.640*[#  18]+0.124*[#  27]+0.124*[#  35]+0.099*[#  15]
    |psi|^2 = 0.987
==== e(  30) =    -2.97219 eV ====
     psi = 0.579*[#  14]+0.225*[#  17]+0.055*[#  16]+0.043*[#  26]+0.043*[#  34]
          +0.021*[#  28]+0.021*[#  36]+0.004*[#  20]
    |psi|^2 = 0.993
==== e(  31) =    -2.79721 eV ====
     psi = 0.302*[#  23]+0.302*[#  31]+0.161*[#  12]+0.101*[#  11]+0.049*[#   9]
          +0.035*[#  25]+0.035*[#  33]+0.005*[#  21]+0.005*[#  29]
    |psi|^2 = 0.995
==== e(  32) =    -2.22753 eV ====
     psi = 0.383*[#  24]+0.383*[#  32]+0.205*[#  10]+0.027*[#  13]
    |psi|^2 = 0.998
==== e(  33) =    -1.49817 eV ====
     psi = 0.369*[#  16]+0.267*[#  17]+0.125*[#  26]+0.125*[#  34]+0.033*[#  28]
          +0.033*[#  36]+0.016*[#  14]+0.009*[#  22]+0.009*[#  30]
    |psi|^2 = 0.987
==== e(  34) =    -1.07404 eV ====
     psi = 0.397*[#  15]+0.242*[#  27]+0.242*[#  35]+0.112*[#  18]
    |psi|^2 = 0.994
==== e(  35) =     1.49123 eV ====
     psi = 0.384*[#  19]+0.072*[#  25]+0.072*[#  33]+0.020*[#  23]+0.020*[#  31]
          +0.013*[#  21]+0.013*[#  29]+0.005*[#  12]+0.001*[#   1]
    |psi|^2 = 0.602
==== e(  36) =     1.70352 eV ====
     psi = 0.360*[#  20]+0.074*[#  28]+0.074*[#  36]+0.019*[#  26]+0.019*[#  34]
          +0.013*[#  22]+0.013*[#  30]+0.008*[#  17]+0.001*[#   2]+0.001*[#  16]

    |psi|^2 = 0.582
==== e(  37) =     3.05938 eV ====
     psi = 0.084*[#  19]+0.008*[#  23]+0.008*[#  31]+0.004*[#  21]+0.004*[#  29]
          +0.004*[#  25]+0.004*[#  33]+0.004*[#  12]+0.002*[#  11]
    |psi|^2 = 0.125
==== e(  38) =     3.20636 eV ====
     psi = 0.096*[#  20]+0.010*[#  26]+0.010*[#  34]+0.006*[#  17]+0.006*[#  28]
          +0.006*[#  36]+0.005*[#  22]+0.005*[#  30]+0.004*[#  16]
    |psi|^2 = 0.147
==== e(  39) =     3.48116 eV ====
     psi = 0.023*[#  19]+0.004*[#  25]+0.004*[#  33]+0.002*[#  23]+0.002*[#  31]
          +0.002*[#  12]+0.001*[#  21]+0.001*[#  29]
    |psi|^2 = 0.040
==== e(  40) =     3.61613 eV ====
     psi = 0.020*[#  20]+0.004*[#  17]+0.003*[#  28]+0.003*[#  36]+0.002*[#  26]
          +0.002*[#  34]+0.001*[#  14]+0.001*[#  22]+0.001*[#  30]
    |psi|^2 = 0.039

 k =   0.0000000000 -0.2886751346  0.0000000000
==== e(   1) =  -105.99971 eV ====
     psi = 0.995*[#   1]+0.001*[#  23]+0.001*[#  25]+0.001*[#  31]+0.001*[#  33]

    |psi|^2 = 1.000
==== e(   2) =  -104.62915 eV ====
     psi = 0.995*[#   2]+0.001*[#  26]+0.001*[#  28]+0.001*[#  34]+0.001*[#  36]

    |psi|^2 = 1.000
==== e(   3) =   -66.47335 eV ====
     psi = 0.999*[#   3]
    |psi|^2 = 1.000
==== e(   4) =   -66.42018 eV ====
     psi = 0.999*[#   5]
    |psi|^2 = 1.000
==== e(   5) =   -66.42000 eV ====
     psi = 0.999*[#   4]
    |psi|^2 = 1.000
==== e(   6) =   -64.96399 eV ====
     psi = 0.999*[#   6]
    |psi|^2 = 1.000
==== e(   7) =   -64.95327 eV ====
     psi = 0.999*[#   8]
    |psi|^2 = 1.000
==== e(   8) =   -64.95306 eV ====
     psi = 0.999*[#   7]
    |psi|^2 = 1.000
[...]
     psi = 0.230*[#  16]+0.170*[#  14]+0.128*[#  26]+0.128*[#  34]+0.099*[#  18]
          +0.094*[#  17]+0.073*[#  15]+0.019*[#  28]+0.019*[#  36]+0.009*[#  20]
          +0.005*[#  27]+0.005*[#  35]+0.002*[#  22]+0.002*[#  30]
    |psi|^2 = 0.984
==== e(  29) =    -2.89174 eV ====
     psi = 0.138*[#  23]+0.138*[#  31]+0.133*[#  11]+0.125*[#  25]+0.125*[#  33]
          +0.125*[#  12]+0.078*[#  24]+0.078*[#  32]+0.024*[#   9]+0.014*[#  13]
          +0.006*[#  21]+0.006*[#  29]
    |psi|^2 = 0.992
==== e(  30) =    -2.89109 eV ====
     psi = 0.580*[#  14]+0.134*[#  17]+0.046*[#  28]+0.046*[#  36]+0.042*[#  26]
          +0.042*[#  34]+0.036*[#  18]+0.034*[#  16]+0.012*[#  15]+0.009*[#  27]
          +0.009*[#  35]
    |psi|^2 = 0.992
==== e(  31) =    -2.81060 eV ====
     psi = 0.323*[#  18]+0.191*[#  27]+0.191*[#  35]+0.124*[#  17]+0.072*[#  15]
          +0.028*[#  16]+0.014*[#  28]+0.014*[#  36]+0.013*[#  26]+0.013*[#  34]

    |psi|^2 = 0.984
==== e(  32) =    -2.29251 eV ====
     psi = 0.377*[#  24]+0.377*[#  32]+0.150*[#  10]+0.071*[#  13]+0.005*[#  23]
          +0.005*[#  31]+0.003*[#  25]+0.003*[#  33]
    |psi|^2 = 0.993
==== e(  33) =    -1.57263 eV ====
     psi = 0.373*[#  16]+0.270*[#  17]+0.086*[#  28]+0.086*[#  36]+0.058*[#  26]
          +0.058*[#  34]+0.014*[#  27]+0.014*[#  35]+0.009*[#  22]+0.009*[#  30]
          +0.006*[#  14]
    |psi|^2 = 0.984
==== e(  34) =    -1.14128 eV ====
     psi = 0.338*[#  15]+0.230*[#  27]+0.230*[#  35]+0.173*[#  18]+0.003*[#  26]
          +0.003*[#  34]+0.003*[#  28]+0.003*[#  36]
    |psi|^2 = 0.986
==== e(  35) =     2.33835 eV ====
     psi = 0.324*[#  19]+0.054*[#  25]+0.054*[#  33]+0.026*[#  23]+0.026*[#  31]
          +0.020*[#  21]+0.020*[#  29]+0.006*[#  24]+0.006*[#  32]+0.002*[#  12]
          +0.001*[#   9]
    |psi|^2 = 0.543
==== e(  36) =     2.54737 eV ====
     psi = 0.287*[#  20]+0.055*[#  28]+0.055*[#  36]+0.023*[#  26]+0.023*[#  34]
          +0.018*[#  22]+0.018*[#  30]+0.006*[#  27]+0.006*[#  35]+0.002*[#  17]
          +0.002*[#  14]+0.002*[#  18]
    |psi|^2 = 0.500
==== e(  37) =     2.87251 eV ====
     psi = 0.093*[#  19]+0.010*[#  23]+0.010*[#  31]+0.007*[#  21]+0.007*[#  29]
          +0.004*[#  25]+0.004*[#  33]
    |psi|^2 = 0.138
==== e(  38) =     2.97618 eV ====
     psi = 0.107*[#  20]+0.011*[#  26]+0.011*[#  34]+0.008*[#  22]+0.008*[#  30]
          +0.006*[#  28]+0.006*[#  36]+0.001*[#  16]+0.001*[#  27]+0.001*[#  35]

    |psi|^2 = 0.163
==== e(  39) =     3.11808 eV ====
     psi = 0.002*[#  12]
    |psi|^2 = 0.006
==== e(  40) =     3.22595 eV ====
     psi = 0.005*[#  17]+0.001*[#  20]
    |psi|^2 = 0.011

 k =  -0.0625000000 -0.1804219591  0.0000000000
==== e(   1) =  -105.99971 eV ====
     psi = 0.995*[#   1]+0.002*[#  23]+0.002*[#  31]
    |psi|^2 = 1.000
==== e(   2) =  -104.62915 eV ====
     psi = 0.995*[#   2]+0.002*[#  26]+0.002*[#  34]
    |psi|^2 = 1.000
==== e(   3) =   -66.47337 eV ====
     psi = 0.999*[#   3]
    |psi|^2 = 1.000
==== e(   4) =   -66.42006 eV ====
     psi = 0.901*[#   5]+0.098*[#   4]
    |psi|^2 = 1.000
==== e(   5) =   -66.41998 eV ====
     psi = 0.901*[#   4]+0.098*[#   5]
    |psi|^2 = 1.000
==== e(   6) =   -64.96402 eV ====
     psi = 0.999*[#   6]
    |psi|^2 = 1.000
==== e(   7) =   -64.95313 eV ====
     psi = 0.901*[#   8]+0.098*[#   7]
    |psi|^2 = 1.000
==== e(   8) =   -64.95303 eV ====
     psi = 0.901*[#   7]+0.098*[#   8]
    |psi|^2 = 1.000
==== e(   9) =   -15.59039 eV ====
     psi = 0.382*[#  21]+0.382*[#  29]+0.215*[#  19]+0.005*[#  23]+0.005*[#  31]
          +0.004*[#  25]+0.004*[#  33]
    |psi|^2 = 1.000
==== e(  10) =   -15.36226 eV ====
     psi = 0.379*[#  22]+0.379*[#  30]+0.220*[#  20]+0.005*[#  26]+0.005*[#  34]
          +0.004*[#  28]+0.004*[#  36]
    |psi|^2 = 0.999
==== e(  11) =   -14.74493 eV ====
     psi = 0.490*[#  21]+0.490*[#  29]+0.004*[#  11]+0.003*[#  25]+0.003*[#  33]
          +0.002*[#  23]+0.002*[#  31]+0.002*[#  12]
    |psi|^2 = 0.998
==== e(  12) =   -14.48508 eV ====
     psi = 0.490*[#  22]+0.490*[#  30]+0.003*[#  28]+0.003*[#  36]+0.003*[#  16]
          +0.002*[#  26]+0.002*[#  34]+0.001*[#  17]
    |psi|^2 = 0.997
==== e(  13) =    -6.66510 eV ====
     psi = 0.363*[#  23]+0.363*[#  31]+0.090*[#  19]+0.086*[#   9]+0.038*[#  21]
          +0.038*[#  29]+0.006*[#  25]+0.006*[#  33]+0.002*[#   1]
    |psi|^2 = 0.995
==== e(  14) =    -6.45258 eV ====
     psi = 0.367*[#  26]+0.367*[#  34]+0.095*[#  20]+0.064*[#  14]+0.041*[#  22]
          +0.041*[#  30]+0.007*[#  28]+0.007*[#  36]+0.002*[#   2]
    |psi|^2 = 0.994
==== e(  15) =    -6.04843 eV ====
     psi = 0.308*[#  12]+0.226*[#  11]+0.145*[#  25]+0.145*[#  33]+0.040*[#  23]
          +0.040*[#  31]+0.034*[#  13]+0.024*[#  10]+0.016*[#  24]+0.016*[#  32]

    |psi|^2 = 0.993
==== e(  16) =    -5.80572 eV ====
     psi = 0.376*[#  10]+0.296*[#  13]+0.110*[#  24]+0.110*[#  32]+0.043*[#  11]
          +0.031*[#  12]+0.015*[#  25]+0.015*[#  33]
    |psi|^2 = 0.995
==== e(  17) =    -5.17602 eV ====
     psi = 0.247*[#  17]+0.243*[#  28]+0.243*[#  36]+0.065*[#  26]+0.065*[#  34]
          +0.035*[#  16]+0.027*[#  18]+0.025*[#  27]+0.025*[#  35]+0.004*[#  15]
          +0.002*[#  22]+0.002*[#  30]
    |psi|^2 = 0.984
==== e(  18) =    -4.75285 eV ====
     psi = 0.289*[#  11]+0.197*[#  25]+0.197*[#  33]+0.119*[#   9]+0.088*[#  12]
          +0.025*[#  19]+0.019*[#  13]+0.009*[#  21]+0.009*[#  29]+0.008*[#  24]
          +0.008*[#  32]+0.006*[#  23]+0.006*[#  31]+0.004*[#  10]
    |psi|^2 = 0.984
==== e(  19) =    -4.57003 eV ====
     psi = 0.309*[#  18]+0.241*[#  27]+0.241*[#  35]+0.094*[#  15]+0.031*[#  17]
          +0.028*[#  28]+0.028*[#  36]+0.007*[#  16]+0.003*[#  14]+0.002*[#  20]

    |psi|^2 = 0.985
==== e(  20) =    -4.50380 eV ====
     psi = 0.326*[#  10]+0.212*[#  13]+0.151*[#  11]+0.102*[#  24]+0.102*[#  32]
          +0.035*[#   9]+0.029*[#  12]+0.007*[#  25]+0.007*[#  33]+0.005*[#  19]
          +0.002*[#  21]+0.002*[#  29]+0.002*[#  23]+0.002*[#  31]
    |psi|^2 = 0.986
==== e(  21) =    -4.23095 eV ====
     psi = 0.266*[#  28]+0.266*[#  36]+0.138*[#  14]+0.110*[#  16]+0.057*[#  15]
          +0.039*[#  20]+0.028*[#  27]+0.028*[#  35]+0.014*[#  22]+0.014*[#  30]
          +0.010*[#  26]+0.010*[#  34]
    |psi|^2 = 0.983
==== e(  22) =    -4.10601 eV ====
     psi = 0.389*[#   9]+0.140*[#  11]+0.134*[#  13]+0.124*[#  10]+0.103*[#  12]
          +0.024*[#  19]+0.022*[#  25]+0.022*[#  33]+0.008*[#  23]+0.008*[#  31]
          +0.007*[#  21]+0.007*[#  29]+0.001*[#  24]+0.001*[#  32]
    |psi|^2 = 0.990
==== e(  23) =    -3.67553 eV ====
     psi = 0.311*[#  15]+0.219*[#  16]+0.148*[#  27]+0.148*[#  35]+0.081*[#  18]
          +0.042*[#  17]+0.014*[#  28]+0.014*[#  36]+0.003*[#  26]+0.003*[#  34]

    |psi|^2 = 0.982
==== e(  24) =    -3.54565 eV ====
     psi = 0.424*[#  23]+0.424*[#  31]+0.051*[#  25]+0.051*[#  33]+0.016*[#  12]
          +0.007*[#  24]+0.007*[#  32]+0.006*[#   9]
    |psi|^2 = 0.988
==== e(  25) =    -3.45422 eV ====
     psi = 0.342*[#   9]+0.167*[#  25]+0.167*[#  33]+0.111*[#  12]+0.049*[#  23]
          +0.049*[#  31]+0.031*[#  11]+0.023*[#  13]+0.014*[#  24]+0.014*[#  32]
          +0.014*[#  10]+0.004*[#  19]+0.002*[#  21]+0.002*[#  29]
    |psi|^2 = 0.990
==== e(  26) =    -3.31423 eV ====
     psi = 0.260*[#  14]+0.220*[#  16]+0.144*[#  15]+0.138*[#  17]+0.114*[#  18]
          +0.025*[#  26]+0.025*[#  34]+0.018*[#  28]+0.018*[#  36]+0.014*[#  20]
          +0.003*[#  22]+0.003*[#  30]
    |psi|^2 = 0.985
==== e(  27) =    -3.30157 eV ====
     psi = 0.385*[#  26]+0.385*[#  34]+0.064*[#  28]+0.064*[#  36]+0.016*[#  15]
          +0.015*[#  17]+0.014*[#  14]+0.012*[#  27]+0.012*[#  35]+0.008*[#  16]
          +0.007*[#  18]
    |psi|^2 = 0.984
==== e(  28) =    -3.24284 eV ====
     psi = 0.239*[#  24]+0.239*[#  32]+0.172*[#  12]+0.150*[#  13]+0.068*[#  25]
          +0.068*[#  33]+0.018*[#  10]+0.009*[#   9]+0.007*[#  23]+0.007*[#  31]
          +0.002*[#  21]+0.002*[#  29]
    |psi|^2 = 0.984
==== e(  29) =    -2.83579 eV ====
     psi = 0.501*[#  14]+0.096*[#  17]+0.094*[#  28]+0.094*[#  36]+0.039*[#  26]
          +0.039*[#  34]+0.039*[#  16]+0.039*[#  18]+0.022*[#  15]+0.012*[#  27]
          +0.012*[#  35]
    |psi|^2 = 0.990
==== e(  30) =    -2.72931 eV ====
     psi = 0.256*[#  27]+0.256*[#  35]+0.186*[#  18]+0.132*[#  17]+0.054*[#  15]
          +0.034*[#  28]+0.034*[#  36]+0.024*[#  16]+0.002*[#  26]+0.002*[#  34]
          +0.001*[#  14]
    |psi|^2 = 0.982
==== e(  31) =    -2.67954 eV ====
     psi = 0.227*[#  25]+0.227*[#  33]+0.124*[#  12]+0.120*[#  24]+0.120*[#  32]
          +0.106*[#  11]+0.021*[#  23]+0.021*[#  31]+0.006*[#  10]+0.005*[#  21]
          +0.005*[#  29]+0.004*[#   9]+0.001*[#  13]
    |psi|^2 = 0.989
==== e(  32) =    -2.22541 eV ====
     psi = 0.358*[#  24]+0.358*[#  32]+0.124*[#  13]+0.101*[#  10]+0.019*[#  25]
          +0.019*[#  33]+0.006*[#  12]+0.002*[#  23]+0.002*[#  31]+0.001*[#  11]
          +0.001*[#   9]
    |psi|^2 = 0.993
==== e(  33) =    -1.45720 eV ====
     psi = 0.308*[#  16]+0.270*[#  17]+0.135*[#  28]+0.135*[#  36]+0.028*[#  27]
          +0.028*[#  35]+0.020*[#  26]+0.020*[#  34]+0.013*[#  15]+0.007*[#  18]
          +0.007*[#  22]+0.007*[#  30]+0.001*[#  14]
    |psi|^2 = 0.981
==== e(  34) =    -1.08604 eV ====
     psi = 0.270*[#  15]+0.223*[#  27]+0.223*[#  35]+0.215*[#  18]+0.016*[#  28]
          +0.016*[#  36]+0.009*[#  17]+0.009*[#  16]+0.001*[#  26]+0.001*[#  34]

    |psi|^2 = 0.986
==== e(  35) =     2.47127 eV ====
     psi = 0.320*[#  19]+0.034*[#  23]+0.034*[#  31]+0.030*[#  21]+0.030*[#  29]
          +0.025*[#  25]+0.025*[#  33]+0.003*[#  24]+0.003*[#  32]
    |psi|^2 = 0.507
==== e(  36) =     2.60640 eV ====
     psi = 0.254*[#  20]+0.028*[#  26]+0.028*[#  34]+0.024*[#  22]+0.024*[#  30]
          +0.020*[#  28]+0.020*[#  36]+0.003*[#  27]+0.003*[#  35]
    |psi|^2 = 0.406
==== e(  37) =     2.86651 eV ====
     psi = 0.068*[#  19]+0.015*[#  25]+0.015*[#  33]+0.006*[#  23]+0.006*[#  31]
          +0.006*[#  21]+0.006*[#  29]+0.002*[#  24]+0.002*[#  32]+0.002*[#   9]

    |psi|^2 = 0.128
==== e(  38) =     2.95304 eV ====
     psi = 0.045*[#  19]+0.007*[#  25]+0.007*[#  33]+0.004*[#  23]+0.004*[#  31]
          +0.004*[#  21]+0.004*[#  29]+0.003*[#  24]+0.003*[#  32]+0.002*[#  12]
          +0.001*[#   9]
    |psi|^2 = 0.083
==== e(  39) =     2.98665 eV ====
     psi = 0.036*[#  20]+0.009*[#  28]+0.009*[#  36]+0.004*[#  26]+0.004*[#  34]
          +0.003*[#  22]+0.003*[#  30]
    |psi|^2 = 0.071
==== e(  40) =     3.09073 eV ====
     psi = 0.120*[#  20]+0.020*[#  28]+0.020*[#  36]+0.012*[#  26]+0.012*[#  34]
          +0.010*[#  22]+0.010*[#  30]+0.005*[#  27]+0.005*[#  35]+0.003*[#  14]
          +0.002*[#  17]
    |psi|^2 = 0.223

 k =  -0.0625000000 -0.1082531755  0.0000000000
==== e(   1) =  -105.99971 eV ====
     psi = 0.995*[#   1]+0.002*[#  23]+0.002*[#  31]
    |psi|^2 = 1.000
==== e(   2) =  -104.62916 eV ====
     psi = 0.995*[#   2]+0.002*[#  26]+0.002*[#  34]
    |psi|^2 = 1.000
==== e(   3) =   -66.47339 eV ====
     psi = 0.999*[#   3]
    |psi|^2 = 1.000
==== e(   4) =   -66.42000 eV ====
     psi = 0.750*[#   5]+0.250*[#   4]
    |psi|^2 = 1.000
==== e(   5) =   -66.41996 eV ====
     psi = 0.750*[#   4]+0.250*[#   5]
    |psi|^2 = 1.000
==== e(   6) =   -64.96403 eV ====
     psi = 0.999*[#   6]
    |psi|^2 = 1.000
==== e(   7) =   -64.95305 eV ====
     psi = 0.750*[#   8]+0.250*[#   7]
    |psi|^2 = 1.000
==== e(   8) =   -64.95301 eV ====
     psi = 0.750*[#   7]+0.250*[#   8]
    |psi|^2 = 1.000
==== e(   9) =   -15.70560 eV ====
     psi = 0.372*[#  21]+0.372*[#  29]+0.241*[#  19]+0.005*[#  23]+0.005*[#  31]
          +0.002*[#  25]+0.002*[#  33]
    |psi|^2 = 1.000
==== e(  10) =   -15.47937 eV ====
     psi = 0.369*[#  22]+0.369*[#  30]+0.246*[#  20]+0.005*[#  26]+0.005*[#  34]
          +0.002*[#  28]+0.002*[#  36]
    |psi|^2 = 1.000
==== e(  11) =   -14.80462 eV ====
     psi = 0.493*[#  21]+0.493*[#  29]+0.002*[#  23]+0.002*[#  31]+0.002*[#  25]
          +0.002*[#  33]+0.001*[#  11]
    |psi|^2 = 0.997
==== e(  12) =   -14.54678 eV ====
     psi = 0.493*[#  22]+0.493*[#  30]+0.002*[#  26]+0.002*[#  34]+0.002*[#  28]
          +0.002*[#  36]+0.001*[#  16]
    |psi|^2 = 0.997
==== e(  13) =    -6.77152 eV ====
     psi = 0.371*[#  23]+0.371*[#  31]+0.095*[#   9]+0.079*[#  19]+0.036*[#  21]
          +0.036*[#  29]+0.002*[#   1]+0.001*[#  25]+0.001*[#  33]
    |psi|^2 = 0.994
==== e(  14) =    -6.55469 eV ====
     psi = 0.377*[#  26]+0.377*[#  34]+0.083*[#  20]+0.073*[#  14]+0.040*[#  22]
          +0.040*[#  30]+0.002*[#   2]+0.001*[#  28]+0.001*[#  36]
    |psi|^2 = 0.994
==== e(  15) =    -5.92789 eV ====
     psi = 0.274*[#  12]+0.235*[#  11]+0.102*[#  25]+0.102*[#  33]+0.091*[#  13]
          +0.078*[#  10]+0.035*[#  24]+0.035*[#  32]+0.022*[#  23]+0.022*[#  31]

    |psi|^2 = 0.994
==== e(  16) =    -5.81050 eV ====
     psi = 0.293*[#  10]+0.271*[#  13]+0.098*[#  11]+0.090*[#  12]+0.090*[#  24]
          +0.090*[#  32]+0.031*[#  25]+0.031*[#  33]
    |psi|^2 = 0.995
==== e(  17) =    -4.87407 eV ====
     psi = 0.254*[#  17]+0.180*[#  28]+0.180*[#  36]+0.085*[#  18]+0.060*[#  27]
          +0.060*[#  35]+0.050*[#  26]+0.050*[#  34]+0.048*[#  16]+0.016*[#  15]

    |psi|^2 = 0.987
==== e(  18) =    -4.56636 eV ====
     psi = 0.294*[#  18]+0.186*[#  27]+0.186*[#  35]+0.098*[#  17]+0.075*[#  15]
          +0.062*[#  28]+0.062*[#  36]+0.025*[#  16]
    |psi|^2 = 0.987
==== e(  19) =    -4.41071 eV ====
     psi = 0.444*[#  11]+0.218*[#  12]+0.148*[#  10]+0.073*[#  13]+0.027*[#  24]
          +0.027*[#  32]+0.019*[#  25]+0.019*[#  33]+0.006*[#  23]+0.006*[#  31]

    |psi|^2 = 0.988
==== e(  20) =    -4.39237 eV ====
     psi = 0.313*[#  10]+0.237*[#  13]+0.104*[#  11]+0.079*[#  12]+0.065*[#   9]
          +0.057*[#  25]+0.057*[#  33]+0.030*[#  24]+0.030*[#  32]+0.008*[#  19]
          +0.003*[#  21]+0.003*[#  29]
    |psi|^2 = 0.988
==== e(  21) =    -4.03659 eV ====
     psi = 0.667*[#   9]+0.064*[#  10]+0.057*[#  13]+0.032*[#  19]+0.029*[#  25]
          +0.029*[#  33]+0.021*[#  11]+0.019*[#  12]+0.017*[#  23]+0.017*[#  31]
          +0.010*[#  24]+0.010*[#  32]+0.009*[#  21]+0.009*[#  29]
    |psi|^2 = 0.991
==== e(  22) =    -3.71286 eV ====
     psi = 0.190*[#  15]+0.186*[#  14]+0.167*[#  28]+0.167*[#  36]+0.063*[#  16]
          +0.056*[#  27]+0.056*[#  35]+0.038*[#  18]+0.028*[#  20]+0.013*[#  17]
          +0.010*[#  22]+0.010*[#  30]
    |psi|^2 = 0.982
==== e(  23) =    -3.65284 eV ====
     psi = 0.465*[#  23]+0.465*[#  31]+0.024*[#  12]+0.009*[#  25]+0.009*[#  33]
          +0.008*[#  13]+0.003*[#  24]+0.003*[#  32]+0.002*[#  21]+0.002*[#  29]

    |psi|^2 = 0.992
==== e(  24) =    -3.50834 eV ====
     psi = 0.431*[#  16]+0.149*[#  17]+0.144*[#  15]+0.065*[#  27]+0.065*[#  35]
          +0.050*[#  18]+0.022*[#  28]+0.022*[#  36]+0.018*[#  26]+0.018*[#  34]

    |psi|^2 = 0.983
==== e(  25) =    -3.37414 eV ====
     psi = 0.422*[#  26]+0.422*[#  34]+0.035*[#  28]+0.035*[#  36]+0.027*[#  16]
          +0.016*[#  27]+0.016*[#  35]+0.009*[#  15]+0.002*[#  17]+0.001*[#  22]
          +0.001*[#  30]
    |psi|^2 = 0.988
==== e(  26) =    -3.28782 eV ====
     psi = 0.376*[#  14]+0.257*[#  15]+0.145*[#  18]+0.086*[#  16]+0.048*[#  17]
          +0.018*[#  20]+0.009*[#  28]+0.009*[#  36]+0.007*[#  26]+0.007*[#  34]
          +0.007*[#  27]+0.007*[#  35]+0.004*[#  22]+0.004*[#  30]
    |psi|^2 = 0.986
==== e(  27) =    -3.24747 eV ====
     psi = 0.238*[#  25]+0.238*[#  33]+0.159*[#   9]+0.093*[#  24]+0.093*[#  32]
          +0.048*[#  13]+0.030*[#  23]+0.030*[#  31]+0.021*[#  10]+0.016*[#  12]
          +0.007*[#  11]+0.007*[#  19]+0.004*[#  21]+0.004*[#  29]
    |psi|^2 = 0.987
==== e(  28) =    -3.02477 eV ====
     psi = 0.275*[#  24]+0.275*[#  32]+0.142*[#  25]+0.142*[#  33]+0.100*[#  12]
          +0.033*[#  13]+0.008*[#  11]+0.003*[#  10]
    |psi|^2 = 0.982
==== e(  29) =    -2.77524 eV ====
     psi = 0.347*[#  14]+0.154*[#  28]+0.154*[#  36]+0.068*[#  18]+0.059*[#  27]
          +0.059*[#  35]+0.043*[#  15]+0.031*[#  26]+0.031*[#  34]+0.023*[#  17]
          +0.014*[#  16]+0.001*[#  20]+0.001*[#  22]+0.001*[#  30]
    |psi|^2 = 0.988
==== e(  30) =    -2.66339 eV ====
     psi = 0.277*[#  27]+0.277*[#  35]+0.116*[#  17]+0.109*[#  28]+0.109*[#  36]
          +0.041*[#  16]+0.039*[#  18]+0.014*[#  15]
    |psi|^2 = 0.981
==== e(  31) =    -2.38697 eV ====
     psi = 0.217*[#  25]+0.217*[#  33]+0.150*[#  24]+0.150*[#  32]+0.128*[#  12]
          +0.056*[#  11]+0.043*[#  13]+0.019*[#  10]+0.003*[#  21]+0.003*[#  29]
          +0.001*[#  23]+0.001*[#  31]
    |psi|^2 = 0.989
==== e(  32) =    -2.10384 eV ====
     psi = 0.262*[#  24]+0.262*[#  32]+0.132*[#  13]+0.110*[#  25]+0.110*[#  33]
          +0.054*[#  10]+0.044*[#  12]+0.018*[#  11]
    |psi|^2 = 0.995
==== e(  33) =    -1.24039 eV ====
     psi = 0.216*[#  17]+0.189*[#  16]+0.140*[#  28]+0.140*[#  36]+0.072*[#  18]
          +0.071*[#  27]+0.071*[#  35]+0.063*[#  15]+0.004*[#  26]+0.004*[#  34]
          +0.004*[#  22]+0.004*[#  30]
    |psi|^2 = 0.980
==== e(  34) =    -0.98573 eV ====
     psi = 0.196*[#  18]+0.176*[#  27]+0.176*[#  35]+0.173*[#  15]+0.072*[#  28]
          +0.072*[#  36]+0.065*[#  17]+0.058*[#  16]
    |psi|^2 = 0.990
==== e(  35) =     2.14552 eV ====
     psi = 0.327*[#  19]+0.039*[#  23]+0.039*[#  31]+0.039*[#  21]+0.039*[#  29]
          +0.013*[#  25]+0.013*[#  33]+0.004*[#  24]+0.004*[#  32]
    |psi|^2 = 0.518
==== e(  36) =     2.27370 eV ====
     psi = 0.292*[#  20]+0.036*[#  26]+0.036*[#  34]+0.035*[#  22]+0.035*[#  30]
          +0.012*[#  28]+0.012*[#  36]+0.004*[#  27]+0.004*[#  35]
    |psi|^2 = 0.468
==== e(  37) =     2.78983 eV ====

    |psi|^2 = 0.002
==== e(  38) =     2.87147 eV ====

    |psi|^2 = 0.002
==== e(  39) =     3.10884 eV ====
     psi = 0.004*[#  25]+0.004*[#  33]+0.002*[#  24]+0.002*[#  32]
    |psi|^2 = 0.015
==== e(  40) =     3.16425 eV ====
     psi = 0.180*[#  19]+0.021*[#  21]+0.021*[#  29]+0.019*[#  23]+0.019*[#  31]
          +0.012*[#  25]+0.012*[#  33]+0.005*[#  24]+0.005*[#  32]+0.004*[#   9]

    |psi|^2 = 0.298

Lowdin Charges:

     Atom #   1: total charge =  17.3551, s =  2.6489, p =  5.9999, d =  8.7063,
                 spin up      =   9.2841, s =  1.3200,
                 spin up      =   9.2841, p =  2.9999,
                 spin up      =   9.2841, d =  4.9641,
                 spin down    =   8.0711, s =  1.3290,
                 spin down    =   8.0711, p =  2.9999,
                 spin down    =   8.0711, d =  3.7422,
                 polarization =   1.2130, s = -0.0090, p =  0.0000, d =  1.2220,
     Atom #   2: total charge =   7.2033, s =  1.9405, p =  5.2628, d =  0.0000,
                 spin up      =   3.8021, s =  0.9743,
                 spin up      =   3.8021, p =  2.8278,
                 spin up      =   3.8021, d =  0.0000,
                 spin down    =   3.4012, s =  0.9661,
                 spin down    =   3.4012, p =  2.4350,
                 spin down    =   3.4012, d =  0.0000,
                 polarization =   0.4010, s =  0.0082, p =  0.3928, d =  0.0000,
     Atom #   3: total charge =   7.2033, s =  1.9405, p =  5.2628, d =  0.0000,
                 spin up      =   3.8021, s =  0.9743,
                 spin up      =   3.8021, p =  2.8278,
                 spin up      =   3.8021, d =  0.0000,
                 spin down    =   3.4012, s =  0.9661,
                 spin down    =   3.4012, p =  2.4350,
                 spin down    =   3.4012, d =  0.0000,
                 polarization =   0.4010, s =  0.0082, p =  0.3928, d =  0.0000,
     Spilling Parameter:   0.0074

     PROJWFC      :     13.23s CPU     17.57s WALL


   This run was terminated on:  15:54: 3  27Jun2023

=------------------------------------------------------------------------------=
   JOB DONE.
=------------------------------------------------------------------------------=
